/*--------------------------------*- C++ -*----------------------------------*\
  =========                 |
  \\      /  F ield         | OpenFOAM: The Open Source CFD Toolbox
   \\    /   O peration     | Website:  https://openfoam.org
    \\  /    A nd           | Version:  7
     \\/     M anipulation  |
\*---------------------------------------------------------------------------*/
FoamFile
{
    version     2.0;
    format      ascii;
    class       volScalarField;
    location    "0.1/porousMat";
    object      Ta;
}
// * * * * * * * * * * * * * * * * * * * * * * * * * * * * * * * * * * * * * //

dimensions      [0 0 0 1 0 0 0];

internalField   nonuniform List<scalar> 
5000
(
305.235
305.221
305.215
305.207
305.198
305.192
305.179
305.165
305.148
305.129
305.109
305.086
305.062
305.035
305.007
304.976
304.943
304.906
304.863
304.814
304.758
304.69
304.608
304.513
304.413
304.304
304.188
304.063
303.933
303.795
303.651
303.502
303.347
303.187
303.023
302.854
302.681
302.503
302.321
302.135
301.944
301.751
301.553
301.354
301.154
300.955
300.758
300.566
300.38
300.211
304.724
304.711
304.706
304.698
304.69
304.684
304.673
304.659
304.644
304.628
304.609
304.588
304.566
304.542
304.517
304.49
304.46
304.427
304.388
304.344
304.293
304.231
304.155
304.067
303.974
303.873
303.764
303.648
303.526
303.398
303.264
303.124
302.98
302.831
302.679
302.522
302.361
302.196
302.027
301.854
301.677
301.497
301.314
301.128
300.941
300.755
300.572
300.392
300.219
300.062
304.226
304.213
304.209
304.202
304.194
304.189
304.179
304.167
304.153
304.138
304.121
304.103
304.083
304.062
304.039
304.015
303.989
303.959
303.925
303.885
303.838
303.782
303.713
303.632
303.545
303.451
303.35
303.242
303.129
303.009
302.885
302.755
302.622
302.484
302.343
302.198
302.049
301.896
301.74
301.58
301.416
301.249
301.079
300.907
300.733
300.56
300.389
300.222
300.061
299.916
303.742
303.73
303.726
303.72
303.713
303.708
303.699
303.688
303.676
303.663
303.648
303.631
303.614
303.595
303.575
303.553
303.53
303.504
303.474
303.438
303.396
303.345
303.282
303.208
303.128
303.041
302.947
302.847
302.742
302.631
302.516
302.396
302.273
302.145
302.015
301.881
301.744
301.604
301.46
301.313
301.162
301.008
300.85
300.691
300.53
300.37
300.212
300.057
299.907
299.773
303.274
303.262
303.258
303.253
303.247
303.243
303.234
303.225
303.214
303.202
303.189
303.174
303.159
303.142
303.125
303.106
303.086
303.063
303.036
303.005
302.967
302.921
302.864
302.796
302.722
302.642
302.556
302.464
302.366
302.264
302.158
302.048
301.934
301.817
301.697
301.575
301.449
301.32
301.188
301.053
300.915
300.773
300.628
300.481
300.333
300.185
300.039
299.896
299.757
299.634
302.822
302.81
302.807
302.803
302.797
302.793
302.786
302.778
302.768
302.758
302.746
302.733
302.72
302.705
302.69
302.674
302.656
302.637
302.614
302.586
302.553
302.512
302.459
302.398
302.331
302.257
302.178
302.093
302.003
301.909
301.812
301.711
301.606
301.499
301.39
301.278
301.163
301.045
300.925
300.802
300.675
300.546
300.413
300.278
300.142
300.006
299.872
299.74
299.613
299.5
302.388
302.377
302.374
302.37
302.365
302.362
302.356
302.348
302.34
302.331
302.321
302.309
302.298
302.285
302.272
302.258
302.244
302.227
302.207
302.183
302.154
302.117
302.07
302.014
301.953
301.886
301.813
301.736
301.654
301.568
301.478
301.386
301.291
301.193
301.094
300.992
300.888
300.781
300.671
300.559
300.444
300.326
300.205
300.082
299.958
299.833
299.71
299.59
299.473
299.37
301.973
301.963
301.96
301.957
301.952
301.95
301.944
301.938
301.93
301.922
301.914
301.904
301.894
301.883
301.872
301.861
301.848
301.834
301.817
301.797
301.771
301.739
301.697
301.646
301.591
301.53
301.464
301.393
301.318
301.24
301.159
301.075
300.988
300.9
300.81
300.718
300.623
300.527
300.428
300.327
300.223
300.116
300.006
299.894
299.781
299.667
299.555
299.445
299.339
299.246
301.578
301.568
301.566
301.563
301.559
301.557
301.552
301.547
301.54
301.534
301.526
301.518
301.51
301.501
301.491
301.482
301.471
301.459
301.445
301.428
301.406
301.377
301.34
301.295
301.245
301.19
301.13
301.066
300.998
300.927
300.854
300.778
300.7
300.62
300.539
300.456
300.371
300.284
300.195
300.104
300.011
299.914
299.815
299.714
299.611
299.509
299.407
299.307
299.211
299.127
301.204
301.195
301.193
301.19
301.187
301.185
301.181
301.176
301.171
301.165
301.159
301.152
301.145
301.138
301.13
301.122
301.114
301.104
301.093
301.078
301.059
301.034
301.001
300.961
300.917
300.867
300.813
300.755
300.694
300.63
300.564
300.495
300.425
300.354
300.281
300.207
300.131
300.054
299.974
299.893
299.809
299.722
299.633
299.542
299.45
299.358
299.266
299.176
299.089
299.013
300.852
300.843
300.842
300.84
300.837
300.835
300.832
300.828
300.823
300.818
300.813
300.808
300.802
300.796
300.79
300.783
300.777
300.769
300.76
300.748
300.731
300.71
300.681
300.646
300.606
300.562
300.513
300.461
300.406
300.349
300.29
300.229
300.166
300.102
300.038
299.972
299.904
299.835
299.765
299.692
299.618
299.541
299.462
299.38
299.297
299.214
299.132
299.051
298.973
298.906
300.522
300.514
300.513
300.511
300.509
300.507
300.505
300.501
300.497
300.493
300.489
300.485
300.48
300.475
300.47
300.466
300.46
300.454
300.447
300.437
300.424
300.405
300.38
300.349
300.314
300.274
300.231
300.185
300.136
300.085
300.032
299.978
299.922
299.866
299.809
299.75
299.691
299.63
299.568
299.504
299.438
299.37
299.3
299.227
299.154
299.08
299.006
298.934
298.865
298.805
300.215
300.208
300.207
300.205
300.204
300.202
300.2
300.197
300.194
300.191
300.188
300.184
300.18
300.177
300.173
300.169
300.165
300.161
300.155
300.147
300.136
300.121
300.099
300.072
300.041
300.006
299.968
299.927
299.883
299.838
299.792
299.744
299.695
299.645
299.595
299.544
299.492
299.438
299.384
299.328
299.27
299.21
299.148
299.084
299.019
298.953
298.888
298.825
298.763
298.71
299.931
299.925
299.924
299.923
299.921
299.92
299.919
299.916
299.914
299.911
299.909
299.906
299.903
299.9
299.897
299.895
299.892
299.889
299.885
299.879
299.87
299.856
299.838
299.814
299.787
299.757
299.723
299.687
299.649
299.609
299.568
299.526
299.483
299.44
299.396
299.352
299.306
299.26
299.213
299.164
299.113
299.061
299.007
298.951
298.894
298.836
298.779
298.723
298.669
298.622
299.671
299.665
299.665
299.664
299.662
299.662
299.66
299.658
299.657
299.655
299.652
299.65
299.648
299.646
299.644
299.643
299.641
299.639
299.636
299.631
299.624
299.613
299.597
299.577
299.554
299.527
299.498
299.466
299.433
299.398
299.363
299.326
299.289
299.251
299.213
299.175
299.135
299.095
299.055
299.012
298.969
298.923
298.876
298.828
298.778
298.728
298.678
298.629
298.581
298.541
299.434
299.429
299.428
299.428
299.427
299.426
299.425
299.424
299.422
299.421
299.419
299.417
299.416
299.415
299.413
299.412
299.411
299.41
299.408
299.405
299.399
299.39
299.377
299.36
299.34
299.317
299.291
299.264
299.235
299.205
299.174
299.143
299.111
299.078
299.046
299.013
298.979
298.945
298.91
298.874
298.836
298.797
298.757
298.715
298.672
298.628
298.585
298.542
298.501
298.466
299.22
299.215
299.215
299.214
299.214
299.213
299.212
299.211
299.21
299.209
299.208
299.207
299.206
299.205
299.204
299.204
299.203
299.203
299.202
299.199
299.195
299.188
299.177
299.162
299.145
299.126
299.104
299.08
299.056
299.03
299.003
298.976
298.949
298.921
298.893
298.865
298.837
298.808
298.778
298.747
298.716
298.682
298.648
298.612
298.575
298.538
298.5
298.464
298.429
298.399
299.028
299.024
299.024
299.023
299.023
299.022
299.022
299.021
299.02
299.019
299.019
299.018
299.017
299.017
299.017
299.017
299.017
299.017
299.016
299.015
299.011
299.006
298.997
298.985
298.97
298.953
298.935
298.915
298.894
298.872
298.849
298.827
298.803
298.78
298.757
298.733
298.709
298.685
298.66
298.634
298.607
298.579
298.549
298.519
298.488
298.456
298.424
298.393
298.363
298.338
298.858
298.855
298.854
298.854
298.854
298.853
298.853
298.852
298.852
298.851
298.851
298.85
298.85
298.85
298.85
298.85
298.851
298.851
298.851
298.85
298.848
298.843
298.836
298.826
298.814
298.8
298.784
298.767
298.75
298.731
298.712
298.693
298.673
298.654
298.634
298.615
298.595
298.574
298.554
298.532
298.51
298.486
298.462
298.436
298.41
298.383
298.356
298.33
298.305
298.283
298.708
298.706
298.705
298.705
298.705
298.705
298.704
298.704
298.704
298.703
298.703
298.703
298.703
298.703
298.703
298.704
298.704
298.705
298.705
298.705
298.703
298.7
298.694
298.686
298.676
298.664
298.651
298.637
298.622
298.607
298.591
298.575
298.559
298.543
298.526
298.51
298.494
298.477
298.46
298.442
298.424
298.404
298.384
298.362
298.34
298.318
298.296
298.274
298.253
298.235
298.578
298.576
298.576
298.576
298.576
298.575
298.575
298.575
298.575
298.575
298.575
298.575
298.575
298.575
298.575
298.576
298.577
298.578
298.578
298.578
298.577
298.574
298.57
298.563
298.555
298.545
298.535
298.523
298.511
298.498
298.485
298.472
298.459
298.445
298.432
298.419
298.405
298.392
298.378
298.363
298.348
298.332
298.316
298.298
298.28
298.261
298.243
298.225
298.207
298.193
298.467
298.465
298.465
298.465
298.464
298.464
298.464
298.464
298.464
298.464
298.464
298.464
298.464
298.465
298.465
298.466
298.467
298.468
298.468
298.469
298.468
298.466
298.462
298.457
298.45
298.443
298.434
298.424
298.414
298.404
298.393
298.383
298.372
298.361
298.35
298.34
298.329
298.318
298.307
298.295
298.283
298.27
298.256
298.242
298.227
298.212
298.197
298.183
298.168
298.156
298.372
298.37
298.37
298.37
298.37
298.37
298.37
298.37
298.37
298.37
298.37
298.37
298.371
298.371
298.372
298.372
298.373
298.374
298.375
298.375
298.375
298.373
298.37
298.366
298.361
298.355
298.348
298.34
298.332
298.324
298.315
298.307
298.298
298.289
298.281
298.272
298.264
298.255
298.246
298.237
298.227
298.217
298.206
298.194
298.182
298.17
298.158
298.146
298.135
298.125
298.292
298.291
298.291
298.291
298.291
298.291
298.291
298.291
298.291
298.291
298.291
298.291
298.292
298.292
298.293
298.293
298.294
298.295
298.296
298.296
298.296
298.295
298.293
298.29
298.286
298.281
298.275
298.269
298.263
298.256
298.249
298.242
298.235
298.229
298.222
298.215
298.209
298.202
298.195
298.187
298.18
298.172
298.163
298.154
298.144
298.135
298.125
298.116
298.107
298.099
298.227
298.226
298.226
298.226
298.226
298.226
298.226
298.226
298.226
298.226
298.226
298.226
298.226
298.227
298.227
298.228
298.229
298.23
298.23
298.231
298.231
298.23
298.228
298.226
298.223
298.219
298.215
298.21
298.205
298.199
298.194
298.189
298.183
298.178
298.173
298.168
298.163
298.157
298.152
298.146
298.14
298.134
298.127
298.12
298.113
298.105
298.098
298.09
298.083
298.077
298.173
298.172
298.172
298.172
298.172
298.172
298.172
298.172
298.172
298.173
298.173
298.173
298.173
298.174
298.174
298.175
298.175
298.176
298.177
298.177
298.177
298.177
298.176
298.174
298.171
298.168
298.165
298.161
298.157
298.153
298.149
298.145
298.141
298.137
298.133
298.129
298.125
298.121
298.117
298.112
298.108
298.103
298.098
298.092
298.087
298.081
298.075
298.069
298.064
298.059
298.13
298.129
298.129
298.129
298.129
298.129
298.13
298.13
298.13
298.13
298.13
298.13
298.13
298.131
298.131
298.132
298.132
298.133
298.133
298.134
298.134
298.134
298.133
298.131
298.129
298.127
298.125
298.122
298.119
298.116
298.113
298.11
298.106
298.103
298.1
298.097
298.094
298.091
298.088
298.085
298.082
298.078
298.074
298.07
298.066
298.061
298.057
298.052
298.048
298.045
298.096
298.096
298.096
298.096
298.096
298.096
298.096
298.096
298.096
298.096
298.096
298.096
298.096
298.097
298.097
298.098
298.098
298.098
298.099
298.099
298.099
298.099
298.099
298.098
298.096
298.095
298.093
298.091
298.088
298.086
298.084
298.081
298.079
298.077
298.075
298.072
298.07
298.068
298.066
298.063
298.061
298.058
298.055
298.052
298.049
298.045
298.042
298.039
298.036
298.033
298.07
298.069
298.069
298.069
298.069
298.069
298.069
298.07
298.07
298.07
298.07
298.07
298.07
298.07
298.071
298.071
298.071
298.072
298.072
298.072
298.073
298.072
298.072
298.071
298.07
298.069
298.068
298.066
298.065
298.063
298.061
298.059
298.058
298.056
298.054
298.053
298.051
298.05
298.048
298.046
298.044
298.042
298.04
298.038
298.036
298.033
298.031
298.028
298.026
298.024
298.05
298.049
298.049
298.049
298.049
298.049
298.05
298.05
298.05
298.05
298.05
298.05
298.05
298.05
298.05
298.051
298.051
298.051
298.052
298.052
298.052
298.052
298.052
298.051
298.05
298.05
298.049
298.047
298.046
298.045
298.044
298.043
298.041
298.04
298.039
298.038
298.037
298.036
298.034
298.033
298.032
298.03
298.029
298.027
298.026
298.024
298.022
298.02
298.019
298.017
298.035
298.034
298.034
298.035
298.035
298.035
298.035
298.035
298.035
298.035
298.035
298.035
298.035
298.035
298.035
298.036
298.036
298.036
298.036
298.036
298.037
298.036
298.036
298.036
298.035
298.035
298.034
298.033
298.033
298.032
298.031
298.03
298.029
298.028
298.027
298.027
298.026
298.025
298.024
298.023
298.022
298.021
298.02
298.019
298.018
298.017
298.015
298.014
298.013
298.012
298.024
298.024
298.024
298.024
298.024
298.024
298.024
298.024
298.024
298.024
298.024
298.024
298.024
298.024
298.024
298.024
298.025
298.025
298.025
298.025
298.025
298.025
298.025
298.025
298.024
298.024
298.023
298.023
298.022
298.022
298.021
298.021
298.02
298.019
298.019
298.018
298.018
298.017
298.017
298.016
298.015
298.015
298.014
298.013
298.012
298.011
298.011
298.01
298.009
298.008
298.016
298.016
298.016
298.016
298.016
298.016
298.016
298.016
298.016
298.016
298.016
298.016
298.016
298.016
298.016
298.016
298.016
298.017
298.017
298.017
298.017
298.017
298.017
298.017
298.016
298.016
298.016
298.015
298.015
298.015
298.014
298.014
298.013
298.013
298.013
298.012
298.012
298.012
298.011
298.011
298.01
298.01
298.009
298.009
298.008
298.008
298.007
298.007
298.006
298.006
298.01
298.01
298.01
298.01
298.01
298.01
298.01
298.01
298.01
298.01
298.01
298.01
298.01
298.011
298.011
298.011
298.011
298.011
298.011
298.011
298.011
298.011
298.011
298.011
298.011
298.011
298.01
298.01
298.01
298.01
298.009
298.009
298.009
298.009
298.008
298.008
298.008
298.008
298.007
298.007
298.007
298.007
298.006
298.006
298.005
298.005
298.005
298.004
298.004
298.004
298.007
298.007
298.007
298.007
298.007
298.007
298.007
298.007
298.007
298.007
298.007
298.007
298.007
298.007
298.007
298.007
298.007
298.007
298.007
298.007
298.007
298.007
298.007
298.007
298.007
298.007
298.007
298.007
298.006
298.006
298.006
298.006
298.006
298.005
298.005
298.005
298.005
298.005
298.005
298.005
298.004
298.004
298.004
298.004
298.003
298.003
298.003
298.003
298.003
298.002
298.004
298.004
298.004
298.004
298.004
298.004
298.004
298.004
298.004
298.004
298.004
298.004
298.004
298.004
298.004
298.004
298.004
298.004
298.004
298.004
298.004
298.004
298.004
298.004
298.004
298.004
298.004
298.004
298.004
298.004
298.004
298.004
298.004
298.003
298.003
298.003
298.003
298.003
298.003
298.003
298.003
298.003
298.002
298.002
298.002
298.002
298.002
298.002
298.002
298.001
298.002
298.002
298.002
298.002
298.002
298.002
298.002
298.002
298.002
298.002
298.002
298.003
298.003
298.003
298.003
298.003
298.003
298.003
298.003
298.003
298.003
298.003
298.003
298.003
298.003
298.003
298.003
298.002
298.002
298.002
298.002
298.002
298.002
298.002
298.002
298.002
298.002
298.002
298.002
298.002
298.002
298.002
298.002
298.001
298.001
298.001
298.001
298.001
298.001
298.001
298.001
298.001
298.001
298.001
298.001
298.001
298.001
298.001
298.001
298.001
298.001
298.001
298.001
298.001
298.002
298.002
298.002
298.002
298.002
298.002
298.002
298.002
298.002
298.002
298.002
298.002
298.001
298.001
298.001
298.001
298.001
298.001
298.001
298.001
298.001
298.001
298.001
298.001
298.001
298.001
298.001
298.001
298.001
298.001
298.001
298.001
298.001
298.001
298.001
298.001
298.001
298.001
298.001
298.001
298.001
298.001
298.001
298.001
298.001
298.001
298.001
298.001
298.001
298.001
298.001
298.001
298.001
298.001
298.001
298.001
298.001
298.001
298.001
298.001
298.001
298.001
298.001
298.001
298.001
298.001
298.001
298.001
298.001
298.001
298.001
298.001
298.001
298.001
298.001
298.001
298.001
298.001
298.001
298
298
298
298
298
298
298
298
298
298
298
298
298
298
298
298
298
298
298
298
298
298
298
298
298
298
298.001
298.001
298.001
298.001
298.001
298
298
298
298
298
298
298
298
298
298
298
298
298
298
298
298
298
298
298
298
298
298
298
298
298
298
298
298
298
298
298
298
298
298
298
298
298
298
298
298
298
298
298
298
298
298
298
298
298
298
298
298
298
298
298
298
298
298
298
298
298
298
298
298
298
298
298
298
298
298
298
298
298
298
298
298
298
298
298
298
298
298
298
298
298
298
298
298
298
298
298
298
298
298
298
298
298
298
298
298
298
298
298
298
298
298
298
298
298
298
298
298
298
298
298
298
298
298
298
298
298
298
298
298
298
298
298
298
298
298
298
298
298
298
298
298
298
298
298
298
298
298
298
298
298
298
298
298
298
298
298
298
298
298
298
298
298
298
298
298
298
298
298
298
298
298
298
298
298
298
298
298
298
298
298
298
298
298
298
298
298
298
298
298
298
298
298
298
298
298
298
298
298
298
298
298
298
298
298
298
298
298
298
298
298
298
298
298
298
298
298
298
298
298
298
298
298
298
298
298
298
298
298
298
298
298
298
298
298
298
298
298
298
298
298
298
298
298
298
298
298
298
298
298
298
298
298
298
298
298
298
298
298
298
298
298
298
298
298
298
298
298
298
298
298
298
298
298
298
298
298
298
298
298
298
298
298
298
298
298
298
298
298
298
298
298
298
298
298
298
298
298
298
298
298
298
298
298
298
298
298
298
298
298
298
298
298
298
298
298
298
298
298
298
298
298
298
298
298
298
298
298
298
298
298
298
298
298
298
298
298
298
298
298
298
298
298
298
298
298
298
298
298
298
298
298
298
298
298
298
298
298
298
298
298
298
298
298
298
298
298
298
298
298
298
298
298
298
298
298
298
298
298
298
298
298
298
298
298
298
298
298
298
298
298
298
298
298
298
298
298
298
298
298
298
298
298
298
298
298
298
298
298
298
298
298
298
298
298
298
298
298
298
298
298
298
298
298
298
298
298
298
298
298
298
298
298
298
298
298
298
298
298
298
298
298
298
298
298
298
298
298
298
298
298
298
298
298
298
298
298
298
298
298
298
298
298
298
298
298
298
298
298
298
298
298
298
298
298
298
298
298
298
298
298
298
298
298
298
298
298
298
298
298
298
298
298
298
298
298
298
298
298
298
298
298
298
298
298
298
298
298
298
298
298
298
298
298
298
298
298
298
298
298
298
298
298
298
298
298
298
298
298
298
298
298
298
298
298
298
298
298
298
298
298
298
298
298
298
298
298
298
298
298
298
298
298
298
298
298
298
298
298
298
298
298
298
298
298
298
298
298
298
298
298
298
298
298
298
298
298
298
298
298
298
298
298
298
298
298
298
298
298
298
298
298
298
298
298
298
298
298
298
298
298
298
298
298
298
298
298
298
298
298
298
298
298
298
298
298
298
298
298
298
298
298
298
298
298
298
298
298
298
298
298
298
298
298
298
298
298
298
298
298
298
298
298
298
298
298
298
298
298
298
298
298
298
298
298
298
298
298
298
298
298
298
298
298
298
298
298
298
298
298
298
298
298
298
298
298
298
298
298
298
298
298
298
298
298
298
298
298
298
298
298
298
298
298
298
298
298
298
298
298
298
298
298
298
298
298
298
298
298
298
298
298
298
298
298
298
298
298
298
298
298
298
298
298
298
298
298
298
298
298
298
298
298
298
298
298
298
298
298
298
298
298
298
298
298
298
298
298
298
298
298
298
298
298
298
298
298
298
298
298
298
298
298
298
298
298
298
298
298
298
298
298
298
298
298
298
298
298
298
298
298
298
298
298
298
298
298
298
298
298
298
298
298
298
298
298
298
298
298
298
298
298
298
298
298
298
298
298
298
298
298
298
298
298
298
298
298
298
298
298
298
298
298
298
298
298
298
298
298
298
298
298
298
298
298
298
298
298
298
298
298
298
298
298
298
298
298
298
298
298
298
298
298
298
298
298
298
298
298
298
298
298
298
298
298
298
298
298
298
298
298
298
298
298
298
298
298
298
298
298
298
298
298
298
298
298
298
298
298
298
298
298
298
298
298
298
298
298
298
298
298
298
298
298
298
298
298
298
298
298
298
298
298
298
298
298
298
298
298
298
298
298
298
298
298
298
298
298
298
298
298
298
298
298
298
298
298
298
298
298
298
298
298
298
298
298
298
298
298
298
298
298
298
298
298
298
298
298
298
298
298
298
298
298
298
298
298
298
298
298
298
298
298
298
298
298
298
298
298
298
298
298
298
298
298
298
298
298
298
298
298
298
298
298
298
298
298
298
298
298
298
298
298
298
298
298
298
298
298
298
298
298
298
298
298
298
298
298
298
298
298
298
298
298
298
298
298
298
298
298
298
298
298
298
298
298
298
298
298
298
298
298
298
298
298
298
298
298
298
298
298
298
298
298
298
298
298
298
298
298
298
298
298
298
298
298
298
298
298
298
298
298
298
298
298
298
298
298
298
298
298
298
298
298
298
298
298
298
298
298
298
298
298
298
298
298
298
298
298
298
298
298
298
298
298
298
298
298
298
298
298
298
298
298
298
298
298
298
298
298
298
298
298
298
298
298
298
298
298
298
298
298
298
298
298
298
298
298
298
298
298
298
298
298
298
298
298
298
298
298
298
298
298
298
298
298
298
298
298
298
298
298
298
298
298
298
298
298
298
298
298
298
298
298
298
298
298
298
298
298
298
298
298
298
298
298
298
298
298
298
298
298
298
298
298
298
298
298
298
298
298
298
298
298
298
298
298
298
298
298
298
298
298
298
298
298
298
298
298
298
298
298
298
298
298
298
298
298
298
298
298
298
298
298
298
298
298
298
298
298
298
298
298
298
298
298
298
298
298
298
298
298
298
298
298
298
298
298
298
298
298
298
298
298
298
298
298
298
298
298
298
298
298
298
298
298
298
298
298
298
298
298
298
298
298
298
298
298
298
298
298
298
298
298
298
298
298
298
298
298
298
298
298
298
298
298
298
298
298
298
298
298
298
298
298
298
298
298
298
298
298
298
298
298
298
298
298
298
298
298
298
298
298
298
298
298
298
298
298
298
298
298
298
298
298
298
298
298
298
298
298
298
298
298
298
298
298
298
298
298
298
298
298
298
298
298
298
298
298
298
298
298
298
298
298
298
298
298
298
298
298
298
298
298
298
298
298
298
298
298
298
298
298
298
298
298
298
298
298
298
298
298
298
298
298
298
298
298
298
298
298
298
298
298
298
298
298
298
298
298
298
298
298
298
298
298
298
298
298
298
298
298
298
298
298
298
298
298
298
298
298
298
298
298
298
298
298
298
298
298
298
298
298
298
298
298
298
298
298
298
298
298
298
298
298
298
298
298
298
298
298
298
298
298
298
298
298
298
298
298
298
298
298
298
298
298
298
298
298
298
298
298
298
298
298
298
298
298
298
298
298
298
298
298
298
298
298
298
298
298
298
298
298
298
298
298
298
298
298
298
298
298
298
298
298
298
298
298
298
298
298
298
298
298
298
298
298
298
298
298
298
298
298
298
298
298
298
298
298
298
298
298
298
298
298
298
298
298
298
298
298
298
298
298
298
298
298
298
298
298
298
298
298
298
298
298
298
298
298
298
298
298
298
298
298
298
298
298
298
298
298
298
298
298
298
298
298
298
298
298
298
298
298
298
298
298
298
298
298
298
298
298
298
298
298
298
298
298
298
298
298
298
298
298
298
298
298
298
298
298
298
298
298
298
298
298
298
298
298
298
298
298
298
298
298
298
298
298
298
298
298
298
298
298
298
298
298
298
298
298
298
298
298
298
298
298
298
298
298
298
298
298
298
298
298
298
298
298
298
298
298
298
298
298
298
298
298
298
298
298
298
298
298
298
298
298
298
298
298
298
298
298
298
298
298
298
298
298
298
298
298
298
298
298
298
298
298
298
298
298
298
298
298
298
298
298
298
298
298
298
298
298
298
298
298
298
298
298
298
298
298
298
298
298
298
298
298
298
298
298
298
298
298
298
298
298
298
298
298
298
298
298
298
298
298
298
298
298
298
298
298
298
298
298
298
298
298
298
298
298
298
298
298
298
298
298
298
298
298
298
298
298
298
298
298
298
298
298
298
298
298
298
298
298
298
298
298
298
298
298
298
298
298
298
298
298
298
298
298
298
298
298
298
298
298
298
298
298
298
298
298
298
298
298
298
298
298
298
298
298
298
298
298
298
298
298
298
298
298
298
298
298
298
298
298
298
298
298
298
298
298
298
298
298
298
298
298
298
298
298
298
298
298
298
298
298
298
298
298
298
298
298
298
298
298
298
298
298
298
298
298
298
298
298
298
298
298
298
298
298
298
298
298
298
298
298
298
298
298
298
298
298
298
298
298
298
298
298
298
298
298
298
298
298
298
298
298
298
298
298
298
298
298
298
298
298
298
298
298
298
298
298
298
298
298
298
298
298
298
298
298
298
298
298
298
298
298
298
298
298
298
298
298
298
298
298
298
298
298
298
298
298
298
298
298
298
298
298
298
298
298
298
298
298
298
298
298
298
298
298
298
298
298
298
298
298
298
298
298
298
298
298
298
298
298
298
298
298
298
298
298
298
298
298
298
298
298
298
298
298
298
298
298
298
298
298
298
298
298
298
298
298
298
298
298
298
298
298
298
298
298
298
298
298
298
298
298
298
298
298
298
298
298
298
298
298
298
298
298
298
298
298
298
298
298
298
298
298
298
298
298
298
298
298
298
298
298
298
298
298
298
298
298
298
298
298
298
298
298
298
298
298
298
298
298
298
298
298
298
298
298
298
298
298
298
298
298
298
298
298
298
298
298
298
298
298
298
298
298
298
298
298
298
298
298
298
298
298
298
298
298
298
298
298
298
298
298
298
298
298
298
298
298
298
298
298
298
298
298
298
298
298
298
298
298
298
298
298
298
298
298
298
298
298
298
298
298
298
298
298
298
298
298
298
298
298
298
298
298
298
298
298
298
298
298
298
298
298
298
298
298
298
298
298
298
298
298
298
298
298
298
298
298
298
298
298
298
298
298
298
298
298
298
298
298
298
298
298
298
298
298
298
298
298
298
298
298
298
298
298
298
298
298
298
298
298
298
298
298
298
298
298
298
298
298
298
298
298
298
298
298
298
298
298
298
298
298
298
298
298
298
298
298
298
298
298
298
298
298
298
298
298
298
298
298
298
298
298
298
298
298
298
298
298
298
298
298
298
298
298
298
298
298
298
298
298
298
298
298
298
298
298
298
298
298
298
298
298
298
298
298
298
298
298
298
298
298
298
298
298
298
298
298
298
298
298
298
298
298
298
298
298
298
298
298
298
298
298
298
298
298
298
298
298
298
298
298
298
298
298
298
298
298
298
298
298
298
298
298
298
298
298
298
298
298
298
298
298
298
298
298
298
298
298
298
298
298
298
298
298
298
298
298
298
298
298
298
298
298
298
298
298
298
298
298
298
298
298
298
298
298
298
298
298
298
298
298
298
298
298
298
298
298
298
298
298
298
298
298
298
298
298
298
298
298
298
298
298
298
298
298
298
298
298
298
298
298
298
298
298
298
298
298
298
298
298
298
298
298
298
298
298
298
298
298
298
298
298
298
298
298
298
298
298
298
298
298
298
298
298
298
298
298
298
298
298
298
298
298
298
298
298
298
298
298
298
298
298
298
298
298
298
298
298
298
298
298
298
298
298
298
298
298
298
298
298
298
298
298
298
298
298
298
298
298
298
298
298
298
298
298
298
298
298
298
298
298
298
298
298
298
298
298
298
298
298
298
298
298
298
298
298
298
298
298
298
298
298
298
298
298
298
298
298
298
298
298
298
298
298
298
298
298
298
298
298
298
298
298
298
298
298
298
298
298
298
298
298
298
298
298
298
298
298
298
298
298
298
298
298
298
298
298
298
298
298
298
298
298
298
298
298
298
298
298
298
298
298
298
298
298
298
298
298
298
298
298
298
298
298
298
298
298
298
298
298
298
298
298
298
298
298
298
298
298
298
298
298
298
298
298
298
298
298
298
298
298
298
298
298
298
298
298
298
298
298
298
298
298
298
298
298
298
298
298
298
298
298
298
298
298
298
298
298
298
298
298
298
298
298
298
298
298
298
298
298
298
298
298
298
298
298
298
298
298
298
298
298
298
298
298
298
298
298
298
298
298
298
298
298
298
298
298
298
298
298
298
298
298
298
298
298
298
298
298
298
298
298
298
298
298
298
298
298
298
298
298
298
298
298
298
298
298
298
298
298
298
298
298
298
298
298
298
298
298
298
298
298
298
298
298
298
298
298
298
298
298
298
298
298
298
298
298
298
298
298
298
298
298
298
298
298
298
298
298
298
298
298
298
298
298
298
298
298
298
298
298
298
298
298
298
298
298
298
298
298
298
298
298
298
298
298
298
298
298
298
298
298
298
298
298
298
298
298
298
298
298
298
298
298
298
298
298
298
298
298
298
298
298
298
298
298
298
298
298
298
298
298
298
298
298
298
298
298
298
298
298
298
298
298
298
298
298
298
298
298
298
298
298
298
298
298
298
298
298
298
298
298
298
298
298
298
298
298
298
298
298
298
298
298
298
298
298
298
298
298
298
298
298
298
298
298
298
298
298
298
298
298
298
298
298
298
298
298
298
298
298
298
298
298
298
298
298
298
298
298
298
298
298
298
298
298
298
298
298
298
298
298
298
298
298
298
298
298
298
298
298
298
298
298
298
298
298
298
298
298
298
298
298
298
298
298
298
298
298
298
298
298
298
298
298
298
298
298
298
298
298
298
298
298
298
298
297.999
298
298
298
298
298
298
298
298
298
298
298
298
298
298
298
298
298
298
298
298
298
298
298
298
298
298
298
298
298
298
298
298
298
298
298
298
298
298
298
298
298
298
298
298
298
298
298
298
298
)
;

boundaryField
{
    axis
    {
        type            empty;
    }
    back
    {
        type            zeroGradient;
    }
    wedge-right
    {
        type            wedge;
    }
    wedge-left
    {
        type            wedge;
    }
    outer
    {
        type            fixedGradient;
        gradient        nonuniform List<scalar> 
50
(
1381.47
1381.09
1379.7
1377.76
1375.36
1374
1370.89
1367.26
1363.1
1358.38
1353.07
1347.15
1340.59
1333.39
1325.51
1316.91
1307.45
1296.9
1285.2
1272.36
1258.38
1243.03
1225.63
1206.56
1187.46
1167.59
1146.65
1124.53
1101.16
1076.46
1050.38
1022.91
994.059
963.885
932.452
899.837
866.137
831.466
795.968
759.811
723.182
686.28
649.314
612.492
576.023
540.108
504.939
470.686
437.428
404.527
)
;
    }
    inner
    {
        type            fixedValue;
        value           uniform 298;
    }
}


// ************************************************************************* //
