/*--------------------------------*- C++ -*----------------------------------*\
  =========                 |
  \\      /  F ield         | OpenFOAM: The Open Source CFD Toolbox
   \\    /   O peration     | Website:  https://openfoam.org
    \\  /    A nd           | Version:  7
     \\/     M anipulation  |
\*---------------------------------------------------------------------------*/
FoamFile
{
    version     2.0;
    format      ascii;
    class       volScalarField;
    location    "0.08/porousMat";
    object      Ta;
}
// * * * * * * * * * * * * * * * * * * * * * * * * * * * * * * * * * * * * * //

dimensions      [0 0 0 1 0 0 0];

internalField   nonuniform List<scalar> 
5000
(
304.549
304.537
304.532
304.526
304.518
304.513
304.502
304.49
304.476
304.46
304.443
304.424
304.404
304.383
304.36
304.335
304.309
304.279
304.244
304.204
304.156
304.098
304.026
303.941
303.85
303.751
303.644
303.53
303.409
303.283
303.152
303.015
302.874
302.729
302.58
302.428
302.272
302.111
301.947
301.78
301.608
301.432
301.252
301.07
300.887
300.704
300.524
300.347
300.176
300.018
304.042
304.031
304.027
304.021
304.013
304.009
303.999
303.988
303.976
303.962
303.947
303.93
303.912
303.893
303.873
303.852
303.829
303.803
303.773
303.737
303.694
303.642
303.576
303.498
303.414
303.322
303.223
303.117
303.005
302.888
302.766
302.64
302.509
302.375
302.238
302.098
301.954
301.806
301.655
301.5
301.342
301.18
301.014
300.845
300.675
300.506
300.338
300.174
300.015
299.87
303.55
303.539
303.536
303.53
303.524
303.52
303.511
303.502
303.491
303.478
303.465
303.451
303.435
303.418
303.401
303.383
303.363
303.34
303.314
303.283
303.245
303.198
303.138
303.067
302.989
302.905
302.813
302.715
302.612
302.504
302.391
302.274
302.154
302.031
301.905
301.776
301.644
301.509
301.37
301.228
301.083
300.934
300.781
300.626
300.469
300.312
300.157
300.006
299.859
299.725
303.075
303.064
303.061
303.056
303.051
303.047
303.04
303.031
303.022
303.011
302.999
302.987
302.973
302.959
302.944
302.928
302.912
302.892
302.87
302.843
302.809
302.767
302.713
302.648
302.578
302.5
302.416
302.325
302.23
302.131
302.027
301.92
301.81
301.697
301.582
301.464
301.344
301.22
301.094
300.965
300.832
300.695
300.555
300.413
300.269
300.124
299.982
299.842
299.706
299.584
302.617
302.607
302.604
302.6
302.595
302.592
302.586
302.578
302.57
302.561
302.551
302.54
302.528
302.516
302.504
302.491
302.477
302.46
302.442
302.418
302.389
302.352
302.303
302.245
302.18
302.109
302.032
301.949
301.862
301.771
301.676
301.578
301.478
301.375
301.27
301.163
301.054
300.942
300.827
300.709
300.589
300.464
300.337
300.207
300.075
299.943
299.812
299.684
299.559
299.447
302.179
302.169
302.167
302.163
302.159
302.156
302.151
302.144
302.137
302.129
302.121
302.112
302.102
302.092
302.081
302.071
302.059
302.046
302.03
302.01
301.985
301.952
301.909
301.856
301.798
301.733
301.663
301.588
301.508
301.425
301.339
301.25
301.158
301.065
300.97
300.874
300.775
300.674
300.57
300.464
300.355
300.242
300.126
300.008
299.888
299.767
299.648
299.531
299.418
299.316
301.761
301.752
301.75
301.747
301.743
301.741
301.736
301.731
301.724
301.718
301.711
301.703
301.695
301.687
301.678
301.67
301.66
301.65
301.637
301.62
301.599
301.57
301.532
301.485
301.432
301.374
301.31
301.241
301.169
301.094
301.016
300.935
300.853
300.769
300.683
300.597
300.508
300.417
300.324
300.228
300.13
300.029
299.924
299.817
299.708
299.599
299.491
299.385
299.282
299.19
301.364
301.356
301.354
301.352
301.348
301.347
301.343
301.338
301.333
301.327
301.321
301.315
301.309
301.302
301.295
301.288
301.281
301.273
301.263
301.249
301.231
301.206
301.173
301.131
301.084
301.031
300.973
300.912
300.847
300.779
300.708
300.636
300.562
300.486
300.41
300.332
300.253
300.172
300.089
300.004
299.916
299.825
299.732
299.635
299.537
299.439
299.341
299.245
299.153
299.07
300.99
300.983
300.981
300.979
300.976
300.975
300.972
300.968
300.964
300.959
300.954
300.949
300.944
300.939
300.934
300.928
300.923
300.917
300.909
300.898
300.883
300.862
300.832
300.795
300.753
300.706
300.655
300.599
300.541
300.48
300.417
300.352
300.286
300.219
300.151
300.082
300.012
299.94
299.866
299.791
299.713
299.632
299.548
299.462
299.375
299.287
299.199
299.113
299.03
298.956
300.64
300.633
300.632
300.63
300.628
300.626
300.624
300.621
300.617
300.614
300.61
300.606
300.602
300.598
300.594
300.59
300.586
300.582
300.576
300.567
300.555
300.537
300.512
300.479
300.442
300.401
300.355
300.305
300.253
300.199
300.143
300.085
300.027
299.967
299.907
299.847
299.785
299.721
299.657
299.59
299.521
299.45
299.376
299.299
299.221
299.143
299.065
298.988
298.914
298.848
300.314
300.307
300.306
300.305
300.303
300.302
300.3
300.297
300.295
300.292
300.289
300.286
300.283
300.28
300.277
300.275
300.272
300.269
300.265
300.259
300.249
300.233
300.212
300.184
300.151
300.114
300.074
300.03
299.984
299.936
299.886
299.835
299.784
299.732
299.679
299.626
299.572
299.516
299.46
299.402
299.341
299.279
299.214
299.146
299.077
299.008
298.939
298.871
298.805
298.747
300.012
300.006
300.005
300.004
300.003
300.002
300
299.998
299.996
299.994
299.992
299.989
299.987
299.985
299.984
299.982
299.981
299.979
299.976
299.972
299.964
299.951
299.933
299.908
299.88
299.848
299.812
299.774
299.733
299.691
299.648
299.603
299.558
299.513
299.467
299.421
299.374
299.326
299.277
299.226
299.174
299.119
299.062
299.003
298.943
298.882
298.821
298.762
298.704
298.653
299.735
299.73
299.729
299.728
299.727
299.726
299.725
299.724
299.722
299.721
299.719
299.717
299.716
299.715
299.714
299.713
299.713
299.712
299.711
299.707
299.701
299.691
299.675
299.655
299.63
299.602
299.571
299.538
299.502
299.465
299.428
299.389
299.35
299.311
299.271
299.232
299.191
299.15
299.108
299.064
299.019
298.972
298.923
298.871
298.819
298.766
298.713
298.661
298.61
298.566
299.483
299.478
299.478
299.477
299.476
299.476
299.475
299.474
299.473
299.472
299.47
299.469
299.469
299.468
299.468
299.468
299.468
299.468
299.468
299.465
299.461
299.453
299.44
299.422
299.401
299.377
299.35
299.321
299.291
299.259
299.226
299.193
299.16
299.126
299.092
299.058
299.024
298.988
298.953
298.915
298.877
298.836
298.794
298.75
298.705
298.659
298.613
298.568
298.525
298.487
299.256
299.251
299.251
299.251
299.25
299.25
299.249
299.248
299.247
299.247
299.246
299.245
299.245
299.245
299.245
299.246
299.247
299.247
299.247
299.246
299.243
299.236
299.226
299.211
299.193
299.173
299.15
299.125
299.099
299.072
299.044
299.015
298.987
298.958
298.929
298.901
298.872
298.842
298.812
298.78
298.748
298.713
298.677
298.64
298.601
298.562
298.523
298.484
298.447
298.414
299.052
299.049
299.049
299.048
299.048
299.048
299.047
299.047
299.046
299.046
299.045
299.045
299.045
299.045
299.046
299.047
299.048
299.049
299.05
299.049
299.047
299.042
299.033
299.021
299.006
298.989
298.969
298.948
298.926
298.903
298.879
298.855
298.831
298.807
298.783
298.759
298.735
298.71
298.685
298.658
298.631
298.602
298.572
298.54
298.507
298.474
298.441
298.408
298.376
298.349
298.873
298.869
298.869
298.869
298.869
298.869
298.868
298.868
298.868
298.868
298.868
298.868
298.868
298.868
298.869
298.87
298.872
298.873
298.874
298.874
298.873
298.869
298.862
298.852
298.839
298.825
298.809
298.791
298.772
298.753
298.733
298.713
298.693
298.673
298.653
298.633
298.613
298.592
298.571
298.55
298.527
298.503
298.478
298.451
298.424
298.396
298.368
298.34
298.314
298.291
298.715
298.713
298.713
298.712
298.712
298.712
298.712
298.712
298.712
298.712
298.712
298.712
298.712
298.713
298.714
298.715
298.717
298.718
298.72
298.72
298.719
298.716
298.711
298.703
298.692
298.68
298.667
298.652
298.637
298.621
298.604
298.588
298.571
298.555
298.538
298.522
298.505
298.489
298.471
298.454
298.435
298.415
298.395
298.373
298.35
298.327
298.304
298.281
298.259
298.24
298.579
298.577
298.577
298.577
298.577
298.577
298.577
298.577
298.577
298.577
298.577
298.577
298.578
298.578
298.579
298.581
298.582
298.584
298.585
298.586
298.585
298.583
298.579
298.573
298.564
298.554
298.543
298.531
298.519
298.505
298.492
298.479
298.465
298.452
298.438
298.425
298.412
298.398
298.384
298.37
298.355
298.339
298.322
298.304
298.285
298.266
298.247
298.229
298.211
298.195
298.463
298.461
298.461
298.461
298.461
298.461
298.461
298.461
298.461
298.461
298.461
298.462
298.462
298.463
298.464
298.465
298.467
298.468
298.47
298.471
298.471
298.469
298.466
298.461
298.454
298.446
298.437
298.427
298.417
298.406
298.396
298.385
298.374
298.363
298.352
298.342
298.331
298.32
298.309
298.298
298.286
298.273
298.259
298.245
298.23
298.214
298.199
298.184
298.169
298.157
298.365
298.363
298.363
298.363
298.363
298.363
298.363
298.363
298.364
298.364
298.364
298.364
298.365
298.366
298.367
298.368
298.369
298.371
298.372
298.373
298.373
298.372
298.369
298.365
298.36
298.354
298.347
298.339
298.331
298.322
298.314
298.305
298.296
298.288
298.279
298.271
298.263
298.254
298.245
298.236
298.227
298.217
298.206
298.194
298.182
298.17
298.158
298.146
298.134
298.124
298.283
298.282
298.282
298.282
298.282
298.282
298.282
298.282
298.282
298.283
298.283
298.283
298.284
298.285
298.285
298.287
298.288
298.289
298.29
298.291
298.291
298.291
298.289
298.286
298.282
298.277
298.271
298.265
298.258
298.252
298.245
298.238
298.231
298.225
298.218
298.212
298.205
298.199
298.192
298.185
298.177
298.17
298.161
298.152
298.143
298.133
298.123
298.114
298.104
298.097
298.217
298.216
298.216
298.216
298.216
298.216
298.216
298.216
298.216
298.216
298.217
298.217
298.217
298.218
298.219
298.22
298.221
298.222
298.223
298.224
298.224
298.224
298.222
298.22
298.217
298.213
298.209
298.204
298.199
298.194
298.188
298.183
298.178
298.173
298.168
298.163
298.158
298.153
298.148
298.142
298.137
298.131
298.124
298.117
298.11
298.102
298.095
298.087
298.08
298.074
298.163
298.162
298.162
298.162
298.162
298.162
298.162
298.162
298.163
298.163
298.163
298.163
298.164
298.164
298.165
298.166
298.167
298.167
298.168
298.169
298.169
298.169
298.168
298.166
298.164
298.161
298.158
298.154
298.15
298.146
298.142
298.138
298.135
298.131
298.127
298.123
298.119
298.116
298.112
298.108
298.103
298.099
298.094
298.089
298.083
298.077
298.072
298.066
298.061
298.056
298.12
298.12
298.12
298.12
298.12
298.12
298.12
298.12
298.12
298.12
298.12
298.121
298.121
298.122
298.122
298.123
298.123
298.124
298.125
298.126
298.126
298.126
298.125
298.124
298.122
298.12
298.117
298.115
298.112
298.109
298.106
298.103
298.1
298.097
298.094
298.092
298.089
298.086
298.083
298.08
298.077
298.074
298.07
298.066
298.062
298.057
298.053
298.049
298.045
298.041
298.087
298.087
298.087
298.087
298.087
298.087
298.087
298.087
298.087
298.087
298.087
298.088
298.088
298.088
298.089
298.089
298.09
298.09
298.091
298.092
298.092
298.092
298.091
298.09
298.089
298.088
298.086
298.084
298.082
298.079
298.077
298.075
298.073
298.071
298.069
298.067
298.065
298.063
298.061
298.059
298.056
298.054
298.051
298.048
298.045
298.042
298.039
298.036
298.033
298.03
298.062
298.062
298.062
298.062
298.062
298.062
298.062
298.062
298.062
298.062
298.062
298.062
298.063
298.063
298.063
298.064
298.064
298.065
298.065
298.065
298.066
298.066
298.065
298.065
298.064
298.063
298.061
298.06
298.058
298.057
298.055
298.054
298.052
298.051
298.049
298.048
298.046
298.045
298.043
298.042
298.04
298.038
298.037
298.034
298.032
298.03
298.028
298.025
298.023
298.021
298.043
298.043
298.043
298.043
298.043
298.043
298.043
298.043
298.043
298.043
298.043
298.043
298.044
298.044
298.044
298.044
298.045
298.045
298.045
298.046
298.046
298.046
298.046
298.045
298.045
298.044
298.043
298.042
298.041
298.04
298.039
298.038
298.036
298.035
298.034
298.033
298.032
298.031
298.03
298.029
298.028
298.027
298.026
298.024
298.023
298.021
298.019
298.018
298.016
298.015
298.029
298.029
298.029
298.029
298.029
298.029
298.029
298.029
298.029
298.029
298.029
298.03
298.03
298.03
298.03
298.03
298.031
298.031
298.031
298.031
298.031
298.031
298.031
298.031
298.031
298.03
298.029
298.029
298.028
298.027
298.026
298.026
298.025
298.024
298.024
298.023
298.022
298.022
298.021
298.02
298.019
298.018
298.018
298.016
298.015
298.014
298.013
298.012
298.011
298.01
298.019
298.019
298.019
298.019
298.019
298.019
298.019
298.019
298.019
298.02
298.02
298.02
298.02
298.02
298.02
298.02
298.02
298.021
298.021
298.021
298.021
298.021
298.021
298.021
298.02
298.02
298.02
298.019
298.019
298.018
298.018
298.017
298.017
298.016
298.016
298.015
298.015
298.014
298.014
298.013
298.013
298.012
298.012
298.011
298.01
298.01
298.009
298.008
298.007
298.007
298.013
298.013
298.013
298.013
298.013
298.013
298.013
298.013
298.013
298.013
298.013
298.013
298.013
298.013
298.013
298.013
298.013
298.013
298.014
298.014
298.014
298.014
298.014
298.014
298.013
298.013
298.013
298.013
298.012
298.012
298.012
298.011
298.011
298.011
298.01
298.01
298.01
298.009
298.009
298.009
298.008
298.008
298.008
298.007
298.007
298.006
298.006
298.005
298.005
298.004
298.008
298.008
298.008
298.008
298.008
298.008
298.008
298.008
298.008
298.008
298.008
298.008
298.008
298.008
298.008
298.008
298.008
298.008
298.009
298.009
298.009
298.009
298.009
298.009
298.009
298.008
298.008
298.008
298.008
298.008
298.007
298.007
298.007
298.007
298.007
298.006
298.006
298.006
298.006
298.006
298.005
298.005
298.005
298.005
298.004
298.004
298.004
298.003
298.003
298.003
298.005
298.005
298.005
298.005
298.005
298.005
298.005
298.005
298.005
298.005
298.005
298.005
298.005
298.005
298.005
298.005
298.005
298.005
298.005
298.005
298.005
298.005
298.005
298.005
298.005
298.005
298.005
298.005
298.005
298.005
298.005
298.004
298.004
298.004
298.004
298.004
298.004
298.004
298.004
298.003
298.003
298.003
298.003
298.003
298.003
298.002
298.002
298.002
298.002
298.002
298.003
298.003
298.003
298.003
298.003
298.003
298.003
298.003
298.003
298.003
298.003
298.003
298.003
298.003
298.003
298.003
298.003
298.003
298.003
298.003
298.003
298.003
298.003
298.003
298.003
298.003
298.003
298.003
298.003
298.003
298.003
298.003
298.003
298.002
298.002
298.002
298.002
298.002
298.002
298.002
298.002
298.002
298.002
298.002
298.002
298.001
298.001
298.001
298.001
298.001
298.002
298.002
298.002
298.002
298.002
298.002
298.002
298.002
298.002
298.002
298.002
298.002
298.002
298.002
298.002
298.002
298.002
298.002
298.002
298.002
298.002
298.002
298.002
298.002
298.002
298.002
298.002
298.002
298.002
298.002
298.002
298.002
298.001
298.001
298.001
298.001
298.001
298.001
298.001
298.001
298.001
298.001
298.001
298.001
298.001
298.001
298.001
298.001
298.001
298.001
298.001
298.001
298.001
298.001
298.001
298.001
298.001
298.001
298.001
298.001
298.001
298.001
298.001
298.001
298.001
298.001
298.001
298.001
298.001
298.001
298.001
298.001
298.001
298.001
298.001
298.001
298.001
298.001
298.001
298.001
298.001
298.001
298.001
298.001
298.001
298.001
298.001
298.001
298.001
298.001
298.001
298.001
298.001
298.001
298.001
298
298
298
298
298
298.001
298.001
298.001
298.001
298.001
298.001
298.001
298.001
298.001
298.001
298.001
298.001
298.001
298.001
298.001
298.001
298.001
298.001
298.001
298.001
298.001
298.001
298.001
298.001
298.001
298.001
298.001
298.001
298.001
298.001
298
298
298
298
298
298
298
298
298
298
298
298
298
298
298
298
298
298
298
298
298
298
298
298
298
298
298
298
298
298
298
298
298
298
298
298
298
298
298
298
298
298
298
298
298
298
298
298
298
298
298
298
298
298
298
298
298
298
298
298
298
298
298
298
298
298
298
298
298
298
298
298
298
298
298
298
298
298
298
298
298
298
298
298
298
298
298
298
298
298
298
298
298
298
298
298
298
298
298
298
298
298
298
298
298
298
298
298
298
298
298
298
298
298
298
298
298
298
298
298
298
298
298
298
298
298
298
298
298
298
298
298
298
298
298
298
298
298
298
298
298
298
298
298
298
298
298
298
298
298
298
298
298
298
298
298
298
298
298
298
298
298
298
298
298
298
298
298
298
298
298
298
298
298
298
298
298
298
298
298
298
298
298
298
298
298
298
298
298
298
298
298
298
298
298
298
298
298
298
298
298
298
298
298
298
298
298
298
298
298
298
298
298
298
298
298
298
298
298
298
298
298
298
298
298
298
298
298
298
298
298
298
298
298
298
298
298
298
298
298
298
298
298
298
298
298
298
298
298
298
298
298
298
298
298
298
298
298
298
298
298
298
298
298
298
298
298
298
298
298
298
298
298
298
298
298
298
298
298
298
298
298
298
298
298
298
298
298
298
298
298
298
298
298
298
298
298
298
298
298
298
298
298
298
298
298
298
298
298
298
298
298
298
298
298
298
298
298
298
298
298
298
298
298
298
298
298
298
298
298
298
298
298
298
298
298
298
298
298
298
298
298
298
298
298
298
298
298
298
298
298
298
298
298
298
298
298
298
298
298
298
298
298
298
298
298
298
298
298
298
298
298
298
298
298
298
298
298
298
298
298
298
298
298
298
298
298
298
298
298
298
298
298
298
298
298
298
298
298
298
298
298
298
298
298
298
298
298
298
298
298
298
298
298
298
298
298
298
298
298
298
298
298
298
298
298
298
298
298
298
298
298
298
298
298
298
298
298
298
298
298
298
298
298
298
298
298
298
298
298
298
298
298
298
298
298
298
298
298
298
298
298
298
298
298
298
298
298
298
298
298
298
298
298
298
298
298
298
298
298
298
298
298
298
298
298
298
298
298
298
298
298
298
298
298
298
298
298
298
298
298
298
298
298
298
298
298
298
298
298
298
298
298
298
298
298
298
298
298
298
298
298
298
298
298
298
298
298
298
298
298
298
298
298
298
298
298
298
298
298
298
298
298
298
298
298
298
298
298
298
298
298
298
298
298
298
298
298
298
298
298
298
298
298
298
298
298
298
298
298
298
298
298
298
298
298
298
298
298
298
298
298
298
298
298
298
298
298
298
298
298
298
298
298
298
298
298
298
298
298
298
298
298
298
298
298
298
298
298
298
298
298
298
298
298
298
298
298
298
298
298
298
298
298
298
298
298
298
298
298
298
298
298
298
298
298
298
298
298
298
298
298
298
298
298
298
298
298
298
298
298
298
298
298
298
298
298
298
298
298
298
298
298
298
298
298
298
298
298
298
298
298
298
298
298
298
298
298
298
298
298
298
298
298
298
298
298
298
298
298
298
298
298
298
298
298
298
298
298
298
298
298
298
298
298
298
298
298
298
298
298
298
298
298
298
298
298
298
298
298
298
298
298
298
298
298
298
298
298
298
298
298
298
298
298
298
298
298
298
298
298
298
298
298
298
298
298
298
298
298
298
298
298
298
298
298
298
298
298
298
298
298
298
298
298
298
298
298
298
298
298
298
298
298
298
298
298
298
298
298
298
298
298
298
298
298
298
298
298
298
298
298
298
298
298
298
298
298
298
298
298
298
298
298
298
298
298
298
298
298
298
298
298
298
298
298
298
298
298
298
298
298
298
298
298
298
298
298
298
298
298
298
298
298
298
298
298
298
298
298
298
298
298
298
298
298
298
298
298
298
298
298
298
298
298
298
298
298
298
298
298
298
298
298
298
298
298
298
298
298
298
298
298
298
298
298
298
298
298
298
298
298
298
298
298
298
298
298
298
298
298
298
298
298
298
298
298
298
298
298
298
298
298
298
298
298
298
298
298
298
298
298
298
298
298
298
298
298
298
298
298
298
298
298
298
298
298
298
298
298
298
298
298
298
298
298
298
298
298
298
298
298
298
298
298
298
298
298
298
298
298
298
298
298
298
298
298
298
298
298
298
298
298
298
298
298
298
298
298
298
298
298
298
298
298
298
298
298
298
298
298
298
298
298
298
298
298
298
298
298
298
298
298
298
298
298
298
298
298
298
298
298
298
298
298
298
298
298
298
298
298
298
298
298
298
298
298
298
298
298
298
298
298
298
298
298
298
298
298
298
298
298
298
298
298
298
298
298
298
298
298
298
298
298
298
298
298
298
298
298
298
298
298
298
298
298
298
298
298
298
298
298
298
298
298
298
298
298
298
298
298
298
298
298
298
298
298
298
298
298
298
298
298
298
298
298
298
298
298
298
298
298
298
298
298
298
298
298
298
298
298
298
298
298
298
298
298
298
298
298
298
298
298
298
298
298
298
298
298
298
298
298
298
298
298
298
298
298
298
298
298
298
298
298
298
298
298
298
298
298
298
298
298
298
298
298
298
298
298
298
298
298
298
298
298
298
298
298
298
298
298
298
298
298
298
298
298
298
298
298
298
298
298
298
298
298
298
298
298
298
298
298
298
298
298
298
298
298
298
298
298
298
298
298
298
298
298
298
298
298
298
298
298
298
298
298
298
298
298
298
298
298
298
298
298
298
298
298
298
298
298
298
298
298
298
298
298
298
298
298
298
298
298
298
298
298
298
298
298
298
298
298
298
298
298
298
298
298
298
298
298
298
298
298
298
298
298
298
298
298
298
298
298
298
298
298
298
298
298
298
298
298
298
298
298
298
298
298
298
298
298
298
298
298
298
298
298
298
298
298
298
298
298
298
298
298
298
298
298
298
298
298
298
298
298
298
298
298
298
298
298
298
298
298
298
298
298
298
298
298
298
298
298
298
298
298
298
298
298
298
298
298
298
298
298
298
298
298
298
298
298
298
298
298
298
298
298
298
298
298
298
298
298
298
298
298
298
298
298
298
298
298
298
298
298
298
298
298
298
298
298
298
298
298
298
298
298
298
298
298
298
298
298
298
298
298
298
298
298
298
298
298
298
298
298
298
298
298
298
298
298
298
298
298
298
298
298
298
298
298
298
298
298
298
298
298
298
298
298
298
298
298
298
298
298
298
298
298
298
298
298
298
298
298
298
298
298
298
298
298
298
298
298
298
298
298
298
298
298
298
298
298
298
298
298
298
298
298
298
298
298
298
298
298
298
298
298
298
298
298
298
298
298
298
298
298
298
298
298
298
298
298
298
298
298
298
298
298
298
298
298
298
298
298
298
298
298
298
298
298
298
298
298
298
298
298
298
298
298
298
298
298
298
298
298
298
298
298
298
298
298
298
298
298
298
298
298
298
298
298
298
298
298
298
298
298
298
298
298
298
298
298
298
298
298
298
298
298
298
298
298
298
298
298
298
298
298
298
298
298
298
298
298
298
298
298
298
298
298
298
298
298
298
298
298
298
298
298
298
298
298
298
298
298
298
298
298
298
298
298
298
298
298
298
298
298
298
298
298
298
298
298
298
298
298
298
298
298
298
298
298
298
298
298
298
298
298
298
298
298
298
298
298
298
298
298
298
298
298
298
298
298
298
298
298
298
298
298
298
298
298
298
298
298
298
298
298
298
298
298
298
298
298
298
298
298
298
298
298
298
298
298
298
298
298
298
298
298
298
298
298
298
298
298
298
298
298
298
298
298
298
298
298
298
298
298
298
298
298
298
298
298
298
298
298
298
298
298
298
298
298
298
298
298
298
298
298
298
298
298
298
298
298
298
298
298
298
298
298
298
298
298
298
298
298
298
298
298
298
298
298
298
298
298
298
298
298
298
298
298
298
298
298
298
298
298
298
298
298
298
298
298
298
298
298
298
298
298
298
298
298
298
298
298
298
298
298
298
298
298
298
298
298
298
298
298
298
298
298
298
298
298
298
298
298
298
298
298
298
298
298
298
298
298
298
298
298
298
298
298
298
298
298
298
298
298
298
298
298
298
298
298
298
298
298
298
298
298
298
298
298
298
298
298
298
298
298
298
298
298
298
298
298
298
298
298
298
298
298
298
298
298
298
298
298
298
298
298
298
298
298
298
298
298
298
298
298
298
298
298
298
298
298
298
298
298
298
298
298
298
298
298
298
298
298
298
298
298
298
298
298
298
298
298
298
298
298
298
298
298
298
298
298
298
298
298
298
298
298
298
298
298
298
298
298
298
298
298
298
298
298
298
298
298
298
298
298
298
298
298
298
298
298
298
298
298
298
298
298
298
298
298
298
298
298
298
298
298
298
298
298
298
298
298
298
298
298
298
298
298
298
298
298
298
298
298
298
298
298
298
298
298
298
298
298
298
298
298
298
298
298
298
298
298
298
298
298
298
298
298
298
298
298
298
298
298
298
298
298
298
298
298
298
298
298
298
298
298
298
298
298
298
298
298
298
298
298
298
298
298
298
298
298
298
298
298
298
298
298
298
298
298
298
298
298
298
298
298
298
298
298
298
298
298
298
298
298
298
298
298
298
298
298
298
298
298
298
298
298
298
298
298
298
298
298
298
298
298
298
298
298
298
298
298
298
298
298
298
298
298
298
298
298
298
298
298
298
298
298
298
298
298
298
298
298
298
298
298
298
298
298
298
298
298
298
298
298
298
298
298
298
298
298
298
298
298
298
298
298
298
298
298
298
298
298
298
298
298
298
298
298
298
298
298
298
298
298
298
298
298
298
298
298
298
298
298
298
298
298
298
298
298
298
298
298
298
298
298
298
298
298
298
298
298
298
298
298
298
298
298
298
298
298
298
298
298
298
298
298
298
298
298
298
298
298
298
298
298
298
298
298
298
298
298
298
298
298
298
298
298
298
298
298
298
298
298
298
298
298
298
298
298
298
298
298
298
298
298
298
298
298
298
298
298
298
298
298
298
298
298
298
298
298
298
298
298
298
298
298
298
298
298
298
298
298
298
298
298
298
298
298
298
298
298
298
298
298
298
298
298
298
298
298
298
298
298
298
298
298
298
298
298
298
298
298
298
298
298
298
298
298
298
298
298
298
298
298
298
298
298
298
298
298
298
298
298
298
298
298
298
298
298
298
298
298
298
298
298
298
298
298
298
298
298
298
298
298
298
298
298
298
298
298
298
298
298
298
298
298
298
298
298
298
298
298
298
298
298
298
298
298
298
298
298
298
298
298
298
298
298
298
298
298
298
298
298
298
298
298
298
298
298
298
298
298
298
298
298
298
298
298
298
298
298
298
298
298
298
298
298
298
298
298
298
298
298
298
298
298
298
298
298
298
298
298
298
298
298
298
298
298
298
298
298
298
298
298
298
298
298
298
298
298
298
298
298
298
298
298
298
298
298
298
298
298
298
298
298
298
298
298
298
298
298
298
298
298
298
298
298
298
298
298
298
298
298
298
298
298
298
298
298
298
298
298
298
298
298
298
298
298
298
298
298
298
298
298
298
298
298
298
298
298
298
298
298
298
298
298
298
298
298
298
298
298
298
298
298
298
298
298
298
298
298
298
298
298
298
298
298
298
298
298
298
298
298
298
298
298
298
298
298
298
298
298
298
298
298
298
298
298
298
298
298
298
298
298
298
298
298
298
298
298
298
298
298
298
298
298
298
298
298
298
298
298
298
298
298
298
298
298
298
298
298
298
298
298
298
298
298
298
298
298
298
298
298
298
298
298
298
298
298
298
298
298
298
298
298
298
298
298
298
298
298
298
298
298
298
298
298
298
298
298
298
298
298
298
298
298
298
298
298
298
298
298
298
298
298
298
298
298
298
298
298
298
298
298
298
298
298
298
298
298
298
298
298
298
298
298
298
298
298
298
298
298
298
298
298
298
298
298
298
298
298
298
298
298
298
298
298
298
298
298
298
298
298
298
298
298
298
298
298
298
298
298
298
298
298
298
298
298
298
298
298
298
298
298
298
298
298
298
298
298
298
298
298
298
298
298
298
298
298
298
298
298
298
298
298
298
298
298
298
298
298
298
298
298
298
298
298
298
298
298
298
298
298
298
298
298
298
298
298
298
298
298
298
298
298
298
298
298
298
298
298
298
298
298
298
298
298
298
298
298
298
298
298
298
298
298
298
298
298
298
298
298
298
298
298
298
298
298
298
298
298
298
298
298
298
298
298
298
298
298
298
298
298
298
298
298
298
298
298
298
298
298
298
298
298
298
298
298
298
298
298
298
298
298
298
298
298
298
298
298
298
298
298
298
298
298
298
298
298
298
298
298
298
298
298
298
298
298
298
298
298
298
298
298
298
298
298
298
298
298
298
298
298
298
298
298
298
298
298
298
298
298
298
298
298
298
298
298
298
298
298
298
298
298
298
298
298
298
298
298
298
298
298
298
298
298
298
298
298
298
298
298
298
298
298
298
298
298
298
298
298
298
298
298
298
298
298
298
298
298
298
298
298
298
298
298
298
298
298
298
298
298
298
298
298
298
298
298
298
298
298
298
298
298
298
298
298
298
298
298
298
298
298
298
298
298
298
298
298
298
298
298
298
298
298
298
298
298
298
298
298
298
298
298
298
298
298
298
298
298
298
298
298
298
298
298
298
298
298
298
298
298
298
298
298
298
298
298
298
298
298
298
298
298
298
298
298
298
298
298
298
298
298
298
298
298
298
298
298
298
298
298
298
298
298
298
298
298
298
298
298
298
298
298
298
298
298
298
298
298
298
298
298
298
298
298
298
298
298
298
298
298
298
298
298
298
298
298
298
298
298
298
298
298
298
298
298
298
298
298
298
298
298
298
298
298
298
298
298
298
298
298
298
298
298
298
298
298
298
298
298
298
298
298
298
298
298
298
298
298
298
298
298
298
298
298
298
298
298
298
298
298
298
298
298
298
298
298
298
298
298
298
298
298
298
298
298
298
298
298
298
298
298
298
298
298
298
298
298
298
298
298
298
298
298
298
298
298
298
298
298
298
298
298
298
298
298
297.999
298
298
298
298
298
298
298
298
298
298
298
298
298
298
298
298
298
298
298
298
298
298
298
298
298
298
298
298
298
298
298
298
298
298
298
298
298
298
298
298
298
298
298
298
298
298
298
298
298
)
;

boundaryField
{
    axis
    {
        type            empty;
    }
    back
    {
        type            zeroGradient;
    }
    wedge-right
    {
        type            wedge;
    }
    wedge-left
    {
        type            wedge;
    }
    outer
    {
        type            fixedGradient;
        gradient        nonuniform List<scalar> 
50
(
1377.07
1376.7
1375.32
1373.4
1371.01
1369.66
1366.58
1362.98
1358.86
1354.17
1348.91
1343.04
1336.54
1329.4
1321.59
1313.06
1303.68
1293.22
1281.61
1268.88
1255
1239.76
1222.47
1203.53
1184.54
1164.79
1143.97
1121.97
1098.72
1074.14
1048.19
1020.84
992.111
962.061
930.75
898.255
864.672
830.113
794.723
758.668
722.136
685.325
648.442
611.699
575.301
539.452
504.343
470.145
436.938
404.086
)
;
    }
    inner
    {
        type            fixedValue;
        value           uniform 298;
    }
}


// ************************************************************************* //
