/*--------------------------------*- C++ -*----------------------------------*\
  =========                 |
  \\      /  F ield         | OpenFOAM: The Open Source CFD Toolbox
   \\    /   O peration     | Website:  https://openfoam.org
    \\  /    A nd           | Version:  7
     \\/     M anipulation  |
\*---------------------------------------------------------------------------*/
FoamFile
{
    version     2.0;
    format      ascii;
    class       volScalarField;
    location    "0.09/porousMat";
    object      Ta;
}
// * * * * * * * * * * * * * * * * * * * * * * * * * * * * * * * * * * * * * //

dimensions      [0 0 0 1 0 0 0];

internalField   nonuniform List<scalar> 
5000
(
304.899
304.886
304.881
304.873
304.864
304.859
304.847
304.834
304.818
304.801
304.782
304.762
304.739
304.715
304.689
304.662
304.632
304.598
304.56
304.515
304.462
304.399
304.322
304.232
304.136
304.032
303.92
303.801
303.676
303.544
303.406
303.263
303.115
302.962
302.806
302.645
302.48
302.311
302.137
301.96
301.779
301.594
301.405
301.215
301.023
300.832
300.643
300.458
300.28
300.116
304.39
304.377
304.373
304.366
304.358
304.353
304.343
304.33
304.317
304.301
304.284
304.266
304.246
304.224
304.201
304.177
304.15
304.12
304.086
304.046
303.999
303.942
303.871
303.788
303.699
303.602
303.498
303.387
303.27
303.147
303.019
302.886
302.749
302.607
302.462
302.314
302.161
302.004
301.844
301.68
301.513
301.341
301.166
300.989
300.81
300.633
300.457
300.285
300.119
299.967
303.895
303.883
303.879
303.873
303.866
303.861
303.852
303.841
303.828
303.815
303.8
303.783
303.765
303.746
303.726
303.705
303.681
303.655
303.625
303.589
303.547
303.495
303.43
303.354
303.272
303.183
303.086
302.983
302.875
302.761
302.642
302.519
302.392
302.261
302.128
301.991
301.85
301.706
301.558
301.407
301.252
301.094
300.933
300.769
300.603
300.438
300.275
300.116
299.961
299.822
303.415
303.403
303.4
303.394
303.388
303.384
303.376
303.366
303.355
303.343
303.33
303.315
303.299
303.283
303.265
303.247
303.226
303.204
303.177
303.146
303.108
303.061
303.002
302.933
302.857
302.775
302.686
302.591
302.49
302.385
302.276
302.162
302.045
301.925
301.802
301.677
301.548
301.415
301.28
301.142
300.999
300.854
300.705
300.554
300.402
300.249
300.099
299.951
299.808
299.68
302.952
302.941
302.937
302.933
302.927
302.923
302.916
302.908
302.898
302.887
302.876
302.863
302.849
302.835
302.82
302.804
302.786
302.767
302.744
302.717
302.683
302.641
302.588
302.525
302.456
302.38
302.298
302.211
302.118
302.022
301.921
301.817
301.71
301.6
301.487
301.373
301.255
301.134
301.011
300.884
300.754
300.621
300.485
300.346
300.206
300.066
299.927
299.791
299.66
299.542
302.506
302.496
302.493
302.489
302.484
302.481
302.474
302.467
302.458
302.449
302.439
302.428
302.416
302.404
302.391
302.377
302.363
302.346
302.327
302.303
302.274
302.237
302.189
302.131
302.069
302
301.925
301.844
301.76
301.671
301.579
301.484
301.386
301.286
301.184
301.079
300.972
300.863
300.75
300.635
300.517
300.396
300.272
300.145
300.017
299.889
299.762
299.637
299.517
299.409
302.08
302.07
302.067
302.064
302.059
302.057
302.051
302.045
302.037
302.029
302.021
302.011
302.001
301.991
301.98
301.969
301.957
301.943
301.926
301.906
301.881
301.848
301.805
301.754
301.697
301.634
301.566
301.492
301.415
301.335
301.251
301.164
301.075
300.984
300.892
300.797
300.701
300.602
300.5
300.396
300.29
300.18
300.067
299.952
299.835
299.718
299.602
299.489
299.379
299.282
301.673
301.664
301.662
301.659
301.655
301.653
301.648
301.643
301.636
301.63
301.622
301.614
301.606
301.597
301.588
301.579
301.569
301.558
301.544
301.527
301.505
301.476
301.439
301.392
301.341
301.284
301.222
301.156
301.086
301.013
300.937
300.859
300.778
300.696
300.613
300.528
300.441
300.352
300.261
300.168
300.072
299.973
299.871
299.767
299.661
299.555
299.45
299.347
299.247
299.159
301.288
301.28
301.278
301.275
301.272
301.27
301.266
301.261
301.256
301.25
301.244
301.238
301.231
301.224
301.216
301.209
301.201
301.192
301.181
301.167
301.148
301.123
301.09
301.049
301.003
300.952
300.896
300.836
300.773
300.707
300.638
300.568
300.496
300.422
300.348
300.272
300.194
300.115
300.033
299.95
299.864
299.775
299.684
299.59
299.495
299.399
299.304
299.211
299.122
299.042
300.926
300.917
300.916
300.914
300.911
300.909
300.906
300.902
300.898
300.893
300.888
300.883
300.877
300.871
300.866
300.86
300.854
300.846
300.838
300.826
300.81
300.789
300.76
300.723
300.683
300.637
300.587
300.533
300.476
300.417
300.356
300.293
300.229
300.163
300.097
300.029
299.96
299.89
299.818
299.743
299.667
299.588
299.506
299.423
299.337
299.252
299.167
299.083
299.003
298.932
300.586
300.578
300.577
300.575
300.573
300.571
300.569
300.565
300.562
300.558
300.554
300.55
300.545
300.541
300.536
300.532
300.527
300.522
300.515
300.506
300.493
300.475
300.449
300.417
300.381
300.341
300.296
300.248
300.197
300.145
300.09
300.034
299.977
299.919
299.86
299.801
299.74
299.678
299.614
299.549
299.481
299.411
299.339
299.265
299.189
299.112
299.037
298.962
298.89
298.828
300.269
300.262
300.261
300.26
300.258
300.257
300.255
300.252
300.249
300.246
300.243
300.239
300.236
300.233
300.229
300.226
300.223
300.219
300.214
300.207
300.196
300.181
300.159
300.131
300.099
300.063
300.024
299.981
299.937
299.89
299.842
299.793
299.742
299.691
299.64
299.587
299.534
299.48
299.424
299.367
299.307
299.246
299.182
299.117
299.05
298.982
298.915
298.849
298.785
298.73
299.977
299.97
299.97
299.968
299.967
299.966
299.964
299.962
299.96
299.957
299.955
299.952
299.95
299.947
299.945
299.943
299.941
299.938
299.935
299.929
299.92
299.908
299.889
299.865
299.837
299.806
299.771
299.734
299.694
299.653
299.611
299.568
299.524
299.479
299.434
299.389
299.343
299.295
299.247
299.197
299.146
299.092
299.036
298.979
298.92
298.861
298.802
298.744
298.687
298.639
299.708
299.702
299.702
299.701
299.7
299.699
299.698
299.696
299.694
299.692
299.69
299.688
299.687
299.685
299.684
299.682
299.681
299.68
299.677
299.673
299.666
299.656
299.64
299.619
299.595
299.568
299.538
299.505
299.471
299.435
299.398
299.361
299.323
299.284
299.245
299.206
299.166
299.125
299.083
299.04
298.996
298.95
298.901
298.851
298.8
298.748
298.697
298.646
298.597
298.555
299.463
299.458
299.458
299.457
299.456
299.456
299.455
299.453
299.452
299.451
299.449
299.448
299.447
299.446
299.445
299.444
299.444
299.443
299.442
299.439
299.434
299.425
299.412
299.395
299.374
299.35
299.324
299.296
299.266
299.235
299.204
299.171
299.138
299.105
299.072
299.038
299.004
298.969
298.934
298.897
298.859
298.819
298.777
298.734
298.69
298.645
298.601
298.557
298.514
298.478
299.243
299.238
299.238
299.237
299.237
299.236
299.235
299.234
299.233
299.232
299.232
299.231
299.23
299.229
299.229
299.229
299.229
299.229
299.229
299.227
299.223
299.216
299.205
299.19
299.173
299.153
299.13
299.106
299.081
299.054
299.027
298.999
298.971
298.943
298.914
298.886
298.857
298.827
298.797
298.766
298.734
298.7
298.664
298.628
298.59
298.551
298.513
298.475
298.439
298.408
299.045
299.041
299.041
299.04
299.04
299.04
299.039
299.038
299.038
299.037
299.036
299.036
299.036
299.036
299.036
299.036
299.037
299.037
299.037
299.036
299.033
299.028
299.019
299.006
298.992
298.975
298.956
298.935
298.913
298.891
298.868
298.844
298.82
298.797
298.773
298.749
298.725
298.7
298.675
298.648
298.621
298.593
298.563
298.531
298.499
298.467
298.434
298.402
298.371
298.345
298.87
298.866
298.866
298.866
298.866
298.865
298.865
298.865
298.864
298.864
298.863
298.863
298.863
298.863
298.864
298.864
298.865
298.866
298.866
298.866
298.864
298.86
298.853
298.842
298.83
298.816
298.8
298.783
298.764
298.745
298.726
298.706
298.686
298.666
298.647
298.627
298.606
298.586
298.565
298.543
298.52
298.497
298.472
298.445
298.418
298.391
298.364
298.337
298.311
298.288
298.716
298.713
298.713
298.713
298.713
298.712
298.712
298.712
298.712
298.712
298.711
298.711
298.712
298.712
298.713
298.713
298.714
298.715
298.716
298.716
298.715
298.712
298.706
298.698
298.687
298.676
298.662
298.648
298.633
298.617
298.601
298.584
298.568
298.551
298.535
298.519
298.502
298.485
298.468
298.45
298.431
298.412
298.391
298.369
298.347
298.324
298.301
298.279
298.257
298.239
298.583
298.58
298.58
298.58
298.58
298.58
298.58
298.58
298.579
298.579
298.579
298.58
298.58
298.58
298.581
298.582
298.583
298.584
298.585
298.585
298.585
298.582
298.578
298.571
298.563
298.553
298.542
298.53
298.518
298.505
298.491
298.478
298.464
298.451
298.438
298.424
298.411
298.397
298.383
298.369
298.354
298.337
298.321
298.303
298.284
298.265
298.247
298.228
298.21
298.195
298.468
298.466
298.466
298.466
298.466
298.466
298.466
298.466
298.466
298.466
298.466
298.466
298.467
298.467
298.468
298.469
298.47
298.471
298.472
298.473
298.472
298.471
298.467
298.462
298.455
298.447
298.438
298.429
298.418
298.408
298.397
298.386
298.375
298.364
298.354
298.343
298.332
298.321
298.31
298.298
298.286
298.273
298.26
298.245
298.23
298.215
298.199
298.184
298.17
298.158
298.371
298.37
298.37
298.37
298.37
298.37
298.37
298.37
298.37
298.37
298.37
298.37
298.371
298.371
298.372
298.373
298.374
298.375
298.376
298.377
298.377
298.375
298.373
298.369
298.363
298.357
298.35
298.342
298.334
298.325
298.317
298.308
298.299
298.291
298.282
298.274
298.265
298.256
298.248
298.238
298.229
298.218
298.207
298.196
298.184
298.172
298.159
298.147
298.135
298.126
298.291
298.289
298.289
298.289
298.289
298.289
298.289
298.289
298.289
298.29
298.29
298.29
298.29
298.291
298.292
298.293
298.294
298.295
298.296
298.296
298.296
298.295
298.293
298.29
298.286
298.281
298.275
298.269
298.263
298.256
298.249
298.242
298.235
298.229
298.222
298.215
298.209
298.202
298.195
298.188
298.18
298.172
298.163
298.154
298.145
298.135
298.125
298.116
298.106
298.099
298.224
298.223
298.223
298.223
298.223
298.223
298.223
298.223
298.223
298.223
298.224
298.224
298.224
298.225
298.225
298.226
298.227
298.228
298.229
298.229
298.23
298.229
298.228
298.225
298.222
298.218
298.214
298.209
298.204
298.198
298.193
298.188
298.182
298.177
298.172
298.167
298.162
298.157
298.151
298.146
298.14
298.134
298.127
298.12
298.112
298.105
298.097
298.09
298.082
298.076
298.17
298.169
298.169
298.169
298.169
298.169
298.169
298.169
298.169
298.17
298.17
298.17
298.17
298.171
298.171
298.172
298.173
298.174
298.174
298.175
298.175
298.175
298.174
298.172
298.169
298.167
298.163
298.159
298.156
298.151
298.147
298.143
298.139
298.135
298.131
298.127
298.124
298.12
298.116
298.111
298.107
298.102
298.097
298.092
298.086
298.08
298.074
298.068
298.063
298.058
298.127
298.126
298.126
298.126
298.126
298.126
298.126
298.126
298.126
298.127
298.127
298.127
298.127
298.128
298.128
298.129
298.129
298.13
298.131
298.131
298.131
298.131
298.13
298.129
298.127
298.125
298.123
298.12
298.117
298.114
298.111
298.108
298.104
298.101
298.099
298.096
298.093
298.09
298.087
298.084
298.08
298.077
298.073
298.069
298.064
298.06
298.056
298.051
298.047
298.044
298.093
298.092
298.092
298.092
298.092
298.093
298.093
298.093
298.093
298.093
298.093
298.093
298.093
298.094
298.094
298.095
298.095
298.096
298.096
298.097
298.097
298.097
298.096
298.095
298.094
298.092
298.09
298.088
298.086
298.084
298.082
298.079
298.077
298.075
298.073
298.071
298.068
298.066
298.064
298.062
298.059
298.057
298.054
298.051
298.048
298.044
298.041
298.038
298.035
298.032
298.067
298.066
298.066
298.066
298.067
298.067
298.067
298.067
298.067
298.067
298.067
298.067
298.067
298.068
298.068
298.068
298.069
298.069
298.07
298.07
298.07
298.07
298.07
298.069
298.068
298.067
298.065
298.064
298.062
298.061
298.059
298.057
298.056
298.054
298.053
298.051
298.05
298.048
298.046
298.045
298.043
298.041
298.039
298.037
298.034
298.032
298.03
298.027
298.025
298.023
298.047
298.047
298.047
298.047
298.047
298.047
298.047
298.047
298.047
298.047
298.047
298.047
298.048
298.048
298.048
298.048
298.049
298.049
298.049
298.05
298.05
298.05
298.049
298.049
298.048
298.047
298.046
298.045
298.044
298.043
298.042
298.041
298.04
298.038
298.037
298.036
298.035
298.034
298.033
298.032
298.031
298.029
298.028
298.026
298.024
298.023
298.021
298.019
298.018
298.016
298.033
298.032
298.032
298.032
298.032
298.032
298.032
298.032
298.033
298.033
298.033
298.033
298.033
298.033
298.033
298.033
298.034
298.034
298.034
298.034
298.035
298.035
298.034
298.034
298.034
298.033
298.032
298.032
298.031
298.03
298.029
298.028
298.027
298.027
298.026
298.025
298.024
298.024
298.023
298.022
298.021
298.02
298.019
298.018
298.017
298.016
298.015
298.013
298.012
298.011
298.022
298.022
298.022
298.022
298.022
298.022
298.022
298.022
298.022
298.022
298.022
298.022
298.022
298.022
298.023
298.023
298.023
298.023
298.023
298.023
298.023
298.023
298.023
298.023
298.023
298.022
298.022
298.021
298.021
298.02
298.02
298.019
298.019
298.018
298.018
298.017
298.017
298.016
298.016
298.015
298.014
298.014
298.013
298.012
298.012
298.011
298.01
298.009
298.008
298.008
298.015
298.014
298.014
298.014
298.014
298.014
298.014
298.014
298.015
298.015
298.015
298.015
298.015
298.015
298.015
298.015
298.015
298.015
298.015
298.016
298.016
298.016
298.016
298.015
298.015
298.015
298.015
298.014
298.014
298.014
298.013
298.013
298.012
298.012
298.012
298.011
298.011
298.011
298.01
298.01
298.01
298.009
298.009
298.008
298.008
298.007
298.007
298.006
298.005
298.005
298.009
298.009
298.009
298.009
298.009
298.009
298.009
298.009
298.009
298.009
298.009
298.009
298.009
298.01
298.01
298.01
298.01
298.01
298.01
298.01
298.01
298.01
298.01
298.01
298.01
298.01
298.009
298.009
298.009
298.009
298.009
298.008
298.008
298.008
298.008
298.007
298.007
298.007
298.007
298.006
298.006
298.006
298.006
298.005
298.005
298.005
298.004
298.004
298.004
298.003
298.006
298.006
298.006
298.006
298.006
298.006
298.006
298.006
298.006
298.006
298.006
298.006
298.006
298.006
298.006
298.006
298.006
298.006
298.006
298.006
298.006
298.006
298.006
298.006
298.006
298.006
298.006
298.006
298.006
298.006
298.005
298.005
298.005
298.005
298.005
298.005
298.005
298.004
298.004
298.004
298.004
298.004
298.004
298.003
298.003
298.003
298.003
298.002
298.002
298.002
298.004
298.004
298.004
298.004
298.004
298.004
298.004
298.004
298.004
298.004
298.004
298.004
298.004
298.004
298.004
298.004
298.004
298.004
298.004
298.004
298.004
298.004
298.004
298.004
298.004
298.004
298.004
298.004
298.003
298.003
298.003
298.003
298.003
298.003
298.003
298.003
298.003
298.003
298.003
298.003
298.002
298.002
298.002
298.002
298.002
298.002
298.002
298.001
298.001
298.001
298.002
298.002
298.002
298.002
298.002
298.002
298.002
298.002
298.002
298.002
298.002
298.002
298.002
298.002
298.002
298.002
298.002
298.002
298.002
298.002
298.002
298.002
298.002
298.002
298.002
298.002
298.002
298.002
298.002
298.002
298.002
298.002
298.002
298.002
298.002
298.002
298.002
298.002
298.002
298.001
298.001
298.001
298.001
298.001
298.001
298.001
298.001
298.001
298.001
298.001
298.001
298.001
298.001
298.001
298.001
298.001
298.001
298.001
298.001
298.001
298.001
298.001
298.001
298.001
298.001
298.001
298.001
298.001
298.001
298.001
298.001
298.001
298.001
298.001
298.001
298.001
298.001
298.001
298.001
298.001
298.001
298.001
298.001
298.001
298.001
298.001
298.001
298.001
298.001
298.001
298.001
298.001
298.001
298.001
298.001
298.001
298.001
298.001
298
298
298.001
298.001
298.001
298.001
298.001
298.001
298.001
298.001
298.001
298.001
298.001
298.001
298.001
298.001
298.001
298.001
298.001
298.001
298.001
298.001
298.001
298.001
298.001
298.001
298.001
298.001
298.001
298.001
298.001
298.001
298.001
298.001
298.001
298.001
298.001
298.001
298.001
298.001
298.001
298
298
298
298
298
298
298
298
298
298
298
298
298
298
298
298
298
298
298
298
298
298
298
298
298
298
298
298
298
298
298
298
298
298
298
298
298
298
298
298
298
298
298
298
298
298
298
298
298
298
298
298
298
298
298
298
298
298
298
298
298
298
298
298
298
298
298
298
298
298
298
298
298
298
298
298
298
298
298
298
298
298
298
298
298
298
298
298
298
298
298
298
298
298
298
298
298
298
298
298
298
298
298
298
298
298
298
298
298
298
298
298
298
298
298
298
298
298
298
298
298
298
298
298
298
298
298
298
298
298
298
298
298
298
298
298
298
298
298
298
298
298
298
298
298
298
298
298
298
298
298
298
298
298
298
298
298
298
298
298
298
298
298
298
298
298
298
298
298
298
298
298
298
298
298
298
298
298
298
298
298
298
298
298
298
298
298
298
298
298
298
298
298
298
298
298
298
298
298
298
298
298
298
298
298
298
298
298
298
298
298
298
298
298
298
298
298
298
298
298
298
298
298
298
298
298
298
298
298
298
298
298
298
298
298
298
298
298
298
298
298
298
298
298
298
298
298
298
298
298
298
298
298
298
298
298
298
298
298
298
298
298
298
298
298
298
298
298
298
298
298
298
298
298
298
298
298
298
298
298
298
298
298
298
298
298
298
298
298
298
298
298
298
298
298
298
298
298
298
298
298
298
298
298
298
298
298
298
298
298
298
298
298
298
298
298
298
298
298
298
298
298
298
298
298
298
298
298
298
298
298
298
298
298
298
298
298
298
298
298
298
298
298
298
298
298
298
298
298
298
298
298
298
298
298
298
298
298
298
298
298
298
298
298
298
298
298
298
298
298
298
298
298
298
298
298
298
298
298
298
298
298
298
298
298
298
298
298
298
298
298
298
298
298
298
298
298
298
298
298
298
298
298
298
298
298
298
298
298
298
298
298
298
298
298
298
298
298
298
298
298
298
298
298
298
298
298
298
298
298
298
298
298
298
298
298
298
298
298
298
298
298
298
298
298
298
298
298
298
298
298
298
298
298
298
298
298
298
298
298
298
298
298
298
298
298
298
298
298
298
298
298
298
298
298
298
298
298
298
298
298
298
298
298
298
298
298
298
298
298
298
298
298
298
298
298
298
298
298
298
298
298
298
298
298
298
298
298
298
298
298
298
298
298
298
298
298
298
298
298
298
298
298
298
298
298
298
298
298
298
298
298
298
298
298
298
298
298
298
298
298
298
298
298
298
298
298
298
298
298
298
298
298
298
298
298
298
298
298
298
298
298
298
298
298
298
298
298
298
298
298
298
298
298
298
298
298
298
298
298
298
298
298
298
298
298
298
298
298
298
298
298
298
298
298
298
298
298
298
298
298
298
298
298
298
298
298
298
298
298
298
298
298
298
298
298
298
298
298
298
298
298
298
298
298
298
298
298
298
298
298
298
298
298
298
298
298
298
298
298
298
298
298
298
298
298
298
298
298
298
298
298
298
298
298
298
298
298
298
298
298
298
298
298
298
298
298
298
298
298
298
298
298
298
298
298
298
298
298
298
298
298
298
298
298
298
298
298
298
298
298
298
298
298
298
298
298
298
298
298
298
298
298
298
298
298
298
298
298
298
298
298
298
298
298
298
298
298
298
298
298
298
298
298
298
298
298
298
298
298
298
298
298
298
298
298
298
298
298
298
298
298
298
298
298
298
298
298
298
298
298
298
298
298
298
298
298
298
298
298
298
298
298
298
298
298
298
298
298
298
298
298
298
298
298
298
298
298
298
298
298
298
298
298
298
298
298
298
298
298
298
298
298
298
298
298
298
298
298
298
298
298
298
298
298
298
298
298
298
298
298
298
298
298
298
298
298
298
298
298
298
298
298
298
298
298
298
298
298
298
298
298
298
298
298
298
298
298
298
298
298
298
298
298
298
298
298
298
298
298
298
298
298
298
298
298
298
298
298
298
298
298
298
298
298
298
298
298
298
298
298
298
298
298
298
298
298
298
298
298
298
298
298
298
298
298
298
298
298
298
298
298
298
298
298
298
298
298
298
298
298
298
298
298
298
298
298
298
298
298
298
298
298
298
298
298
298
298
298
298
298
298
298
298
298
298
298
298
298
298
298
298
298
298
298
298
298
298
298
298
298
298
298
298
298
298
298
298
298
298
298
298
298
298
298
298
298
298
298
298
298
298
298
298
298
298
298
298
298
298
298
298
298
298
298
298
298
298
298
298
298
298
298
298
298
298
298
298
298
298
298
298
298
298
298
298
298
298
298
298
298
298
298
298
298
298
298
298
298
298
298
298
298
298
298
298
298
298
298
298
298
298
298
298
298
298
298
298
298
298
298
298
298
298
298
298
298
298
298
298
298
298
298
298
298
298
298
298
298
298
298
298
298
298
298
298
298
298
298
298
298
298
298
298
298
298
298
298
298
298
298
298
298
298
298
298
298
298
298
298
298
298
298
298
298
298
298
298
298
298
298
298
298
298
298
298
298
298
298
298
298
298
298
298
298
298
298
298
298
298
298
298
298
298
298
298
298
298
298
298
298
298
298
298
298
298
298
298
298
298
298
298
298
298
298
298
298
298
298
298
298
298
298
298
298
298
298
298
298
298
298
298
298
298
298
298
298
298
298
298
298
298
298
298
298
298
298
298
298
298
298
298
298
298
298
298
298
298
298
298
298
298
298
298
298
298
298
298
298
298
298
298
298
298
298
298
298
298
298
298
298
298
298
298
298
298
298
298
298
298
298
298
298
298
298
298
298
298
298
298
298
298
298
298
298
298
298
298
298
298
298
298
298
298
298
298
298
298
298
298
298
298
298
298
298
298
298
298
298
298
298
298
298
298
298
298
298
298
298
298
298
298
298
298
298
298
298
298
298
298
298
298
298
298
298
298
298
298
298
298
298
298
298
298
298
298
298
298
298
298
298
298
298
298
298
298
298
298
298
298
298
298
298
298
298
298
298
298
298
298
298
298
298
298
298
298
298
298
298
298
298
298
298
298
298
298
298
298
298
298
298
298
298
298
298
298
298
298
298
298
298
298
298
298
298
298
298
298
298
298
298
298
298
298
298
298
298
298
298
298
298
298
298
298
298
298
298
298
298
298
298
298
298
298
298
298
298
298
298
298
298
298
298
298
298
298
298
298
298
298
298
298
298
298
298
298
298
298
298
298
298
298
298
298
298
298
298
298
298
298
298
298
298
298
298
298
298
298
298
298
298
298
298
298
298
298
298
298
298
298
298
298
298
298
298
298
298
298
298
298
298
298
298
298
298
298
298
298
298
298
298
298
298
298
298
298
298
298
298
298
298
298
298
298
298
298
298
298
298
298
298
298
298
298
298
298
298
298
298
298
298
298
298
298
298
298
298
298
298
298
298
298
298
298
298
298
298
298
298
298
298
298
298
298
298
298
298
298
298
298
298
298
298
298
298
298
298
298
298
298
298
298
298
298
298
298
298
298
298
298
298
298
298
298
298
298
298
298
298
298
298
298
298
298
298
298
298
298
298
298
298
298
298
298
298
298
298
298
298
298
298
298
298
298
298
298
298
298
298
298
298
298
298
298
298
298
298
298
298
298
298
298
298
298
298
298
298
298
298
298
298
298
298
298
298
298
298
298
298
298
298
298
298
298
298
298
298
298
298
298
298
298
298
298
298
298
298
298
298
298
298
298
298
298
298
298
298
298
298
298
298
298
298
298
298
298
298
298
298
298
298
298
298
298
298
298
298
298
298
298
298
298
298
298
298
298
298
298
298
298
298
298
298
298
298
298
298
298
298
298
298
298
298
298
298
298
298
298
298
298
298
298
298
298
298
298
298
298
298
298
298
298
298
298
298
298
298
298
298
298
298
298
298
298
298
298
298
298
298
298
298
298
298
298
298
298
298
298
298
298
298
298
298
298
298
298
298
298
298
298
298
298
298
298
298
298
298
298
298
298
298
298
298
298
298
298
298
298
298
298
298
298
298
298
298
298
298
298
298
298
298
298
298
298
298
298
298
298
298
298
298
298
298
298
298
298
298
298
298
298
298
298
298
298
298
298
298
298
298
298
298
298
298
298
298
298
298
298
298
298
298
298
298
298
298
298
298
298
298
298
298
298
298
298
298
298
298
298
298
298
298
298
298
298
298
298
298
298
298
298
298
298
298
298
298
298
298
298
298
298
298
298
298
298
298
298
298
298
298
298
298
298
298
298
298
298
298
298
298
298
298
298
298
298
298
298
298
298
298
298
298
298
298
298
298
298
298
298
298
298
298
298
298
298
298
298
298
298
298
298
298
298
298
298
298
298
298
298
298
298
298
298
298
298
298
298
298
298
298
298
298
298
298
298
298
298
298
298
298
298
298
298
298
298
298
298
298
298
298
298
298
298
298
298
298
298
298
298
298
298
298
298
298
298
298
298
298
298
298
298
298
298
298
298
298
298
298
298
298
298
298
298
298
298
298
298
298
298
298
298
298
298
298
298
298
298
298
298
298
298
298
298
298
298
298
298
298
298
298
298
298
298
298
298
298
298
298
298
298
298
298
298
298
298
298
298
298
298
298
298
298
298
298
298
298
298
298
298
298
298
298
298
298
298
298
298
298
298
298
298
298
298
298
298
298
298
298
298
298
298
298
298
298
298
298
298
298
298
298
298
298
298
298
298
298
298
298
298
298
298
298
298
298
298
298
298
298
298
298
298
298
298
298
298
298
298
298
298
298
298
298
298
298
298
298
298
298
298
298
298
298
298
298
298
298
298
298
298
298
298
298
298
298
298
298
298
298
298
298
298
298
298
298
298
298
298
298
298
298
298
298
298
298
298
298
298
298
298
298
298
298
298
298
298
298
298
298
298
298
298
298
298
298
298
298
298
298
298
298
298
298
298
298
298
298
298
298
298
298
298
298
298
298
298
298
298
298
298
298
298
298
298
298
298
298
298
298
298
298
298
298
298
298
298
298
298
298
298
298
298
298
298
298
298
298
298
298
298
298
298
298
298
298
298
298
298
298
298
298
298
298
298
298
298
298
298
298
298
298
298
298
298
298
298
298
298
298
298
298
298
298
298
298
298
298
298
298
298
298
298
298
298
298
298
298
298
298
298
298
298
298
298
298
298
298
298
298
298
298
298
298
298
298
298
298
298
298
298
298
298
298
298
298
298
298
298
298
298
298
298
298
298
298
298
298
298
298
298
298
298
298
298
298
298
298
298
298
298
298
298
298
298
298
298
298
298
298
298
298
298
298
298
298
298
298
298
298
298
298
298
298
298
298
298
298
298
298
298
298
298
298
298
298
298
298
298
298
298
298
298
298
298
298
298
298
298
298
298
298
298
298
298
298
298
298
298
298
298
298
298
298
298
298
298
298
298
298
298
298
298
298
298
298
298
298
298
298
298
298
298
298
298
298
298
298
298
298
298
298
298
298
298
298
298
298
298
298
298
298
298
298
298
298
298
298
298
298
298
298
298
298
298
298
298
298
298
298
298
298
298
298
298
298
298
298
298
298
298
298
298
298
298
298
298
298
298
298
298
298
298
298
298
298
298
298
298
298
298
298
298
298
298
298
298
298
298
298
298
298
298
298
298
298
298
298
298
298
298
298
298
298
298
298
298
298
298
298
298
298
298
298
298
298
298
298
298
298
298
298
298
298
298
298
298
298
298
298
298
298
298
298
298
298
298
298
298
298
298
298
298
298
298
298
298
298
298
298
298
298
298
298
298
298
298
298
298
298
298
298
298
298
298
298
298
298
298
298
298
298
298
298
298
298
298
298
298
298
298
298
298
298
298
298
298
298
298
298
298
298
298
298
298
298
298
298
298
298
298
298
298
298
298
298
298
298
298
298
298
298
298
298
298
298
298
298
298
298
298
298
298
298
298
298
298
298
298
298
298
298
298
298
298
298
298
298
298
298
298
298
298
298
298
298
298
298
298
298
298
298
298
298
298
298
298
298
298
298
298
298
298
298
298
298
298
298
298
298
298
298
298
298
298
298
298
298
298
298
298
298
298
298
298
298
298
298
298
298
298
298
298
298
298
298
298
298
298
298
298
298
298
298
298
298
298
298
298
298
298
298
298
298
298
298
298
298
298
298
298
298
298
298
298
298
298
298
298
298
298
298
298
298
298
298
298
298
298
298
298
298
298
298
298
298
298
298
298
298
298
298
298
298
298
298
298
298
298
298
298
298
298
298
298
298
298
298
298
298
298
298
298
298
298
298
298
298
298
298
298
298
298
298
298
298
298
298
298
298
298
298
298
298
298
298
298
298
298
298
298
298
298
298
298
298
298
298
298
298
298
298
298
298
298
298
298
298
298
298
298
298
298
298
298
298
298
298
298
298
298
298
298
298
298
298
298
298
298
298
298
298
298
298
298
298
298
298
298
298
298
298
298
298
298
298
298
298
298
298
298
298
298
298
298
298
298
298
298
298
298
298
298
298
298
298
298
298
298
298
298
298
298
298
298
298
298
298
298
298
298
298
298
298
298
298
298
298
298
298
298
298
298
298
298
298
298
298
298
298
298
298
298
298
298
298
298
298
298
298
298
298
298
298
298
298
298
298
298
298
298
298
298
298
298
298
298
298
298
298
298
298
298
298
298
298
298
298
298
298
298
298
298
298
298
298
298
298
298
298
298
298
298
298
298
298
298
298
298
298
298
298
298
298
298
298
298
298
298
298
298
298
298
298
298
298
298
298
298
298
298
298
298
298
298
298
298
298
298
298
298
298
298
298
298
298
298
298
298
298
298
298
298
298
298
298
298
298
298
298
298
298
298
298
298
298
298
298
298
298
298
298
298
298
298
298
298
298
298
298
298
298
298
298
298
298
298
298
298
298
298
298
298
298
298
298
298
298
298
298
298
298
298
298
298
298
298
298
298
298
298
298
298
298
298
298
298
298
298
298
298
298
298
298
298
298
298
298
298
298
298
298
298
298
297.999
298
298
298
298
298
298
298
298
298
298
298
298
298
298
298
298
298
298
298
298
298
298
298
298
298
298
298
298
298
298
298
298
298
298
298
298
298
298
298
298
298
298
298
298
298
298
298
298
298
)
;

boundaryField
{
    axis
    {
        type            empty;
    }
    back
    {
        type            zeroGradient;
    }
    wedge-right
    {
        type            wedge;
    }
    wedge-left
    {
        type            wedge;
    }
    outer
    {
        type            fixedGradient;
        gradient        nonuniform List<scalar> 
50
(
1379.32
1378.94
1377.56
1375.63
1373.23
1371.87
1368.78
1365.17
1361.02
1356.32
1351.03
1345.13
1338.61
1331.44
1323.59
1315.03
1305.6
1295.1
1283.44
1270.66
1256.72
1241.43
1224.08
1205.07
1186.03
1166.22
1145.33
1123.27
1099.96
1075.32
1049.3
1021.89
993.104
962.99
931.617
899.062
865.418
830.802
795.357
759.251
722.669
685.812
648.886
612.103
575.669
539.786
504.647
470.421
437.188
404.311
)
;
    }
    inner
    {
        type            fixedValue;
        value           uniform 298;
    }
}


// ************************************************************************* //
