/*--------------------------------*- C++ -*----------------------------------*\
  =========                 |
  \\      /  F ield         | OpenFOAM: The Open Source CFD Toolbox
   \\    /   O peration     | Website:  https://openfoam.org
    \\  /    A nd           | Version:  7
     \\/     M anipulation  |
\*---------------------------------------------------------------------------*/
FoamFile
{
    version     2.0;
    format      ascii;
    class       volScalarField;
    location    "0.06/porousMat";
    object      Ta;
}
// * * * * * * * * * * * * * * * * * * * * * * * * * * * * * * * * * * * * * //

dimensions      [0 0 0 1 0 0 0];

internalField   nonuniform List<scalar> 
5000
(
303.802
303.792
303.789
303.783
303.777
303.773
303.764
303.755
303.744
303.732
303.719
303.705
303.69
303.674
303.658
303.64
303.622
303.601
303.576
303.546
303.508
303.461
303.399
303.325
303.244
303.155
303.058
302.955
302.846
302.732
302.613
302.49
302.364
302.235
302.103
301.969
301.831
301.69
301.546
301.399
301.247
301.091
300.931
300.768
300.602
300.437
300.273
300.113
299.957
299.812
303.299
303.29
303.287
303.282
303.277
303.273
303.266
303.258
303.248
303.238
303.227
303.215
303.202
303.189
303.175
303.161
303.146
303.128
303.108
303.082
303.05
303.008
302.952
302.885
302.811
302.729
302.64
302.545
302.444
302.339
302.23
302.117
302.001
301.883
301.763
301.641
301.515
301.387
301.256
301.121
300.982
300.84
300.693
300.544
300.392
300.239
300.089
299.941
299.797
299.664
302.815
302.806
302.803
302.799
302.794
302.792
302.785
302.778
302.77
302.762
302.752
302.742
302.731
302.721
302.709
302.698
302.686
302.672
302.655
302.633
302.606
302.569
302.519
302.459
302.392
302.317
302.235
302.147
302.055
301.959
301.859
301.756
301.65
301.543
301.434
301.323
301.209
301.093
300.974
300.852
300.726
300.596
300.463
300.326
300.187
300.048
299.909
299.774
299.642
299.521
302.35
302.341
302.339
302.336
302.332
302.329
302.324
302.318
302.311
302.304
302.296
302.288
302.279
302.27
302.262
302.253
302.243
302.232
302.219
302.201
302.178
302.146
302.102
302.048
301.987
301.919
301.844
301.764
301.68
301.592
301.501
301.408
301.312
301.215
301.116
301.016
300.913
300.808
300.701
300.591
300.478
300.361
300.24
300.116
299.989
299.862
299.736
299.612
299.492
299.382
301.906
301.898
301.896
301.893
301.889
301.887
301.883
301.878
301.873
301.867
301.86
301.854
301.847
301.84
301.833
301.826
301.819
301.811
301.801
301.787
301.767
301.74
301.701
301.653
301.598
301.537
301.469
301.397
301.32
301.24
301.158
301.073
300.987
300.9
300.811
300.721
300.629
300.536
300.44
300.341
300.24
300.134
300.025
299.913
299.799
299.683
299.569
299.457
299.347
299.248
301.484
301.476
301.475
301.472
301.47
301.468
301.464
301.46
301.456
301.451
301.446
301.441
301.436
301.43
301.425
301.421
301.416
301.41
301.403
301.392
301.376
301.352
301.319
301.276
301.227
301.172
301.111
301.045
300.976
300.905
300.831
300.755
300.677
300.599
300.52
300.44
300.358
300.275
300.19
300.102
300.011
299.917
299.82
299.719
299.616
299.512
299.409
299.308
299.209
299.12
301.086
301.079
301.078
301.076
301.073
301.072
301.069
301.066
301.062
301.059
301.055
301.051
301.047
301.043
301.04
301.037
301.034
301.03
301.025
301.017
301.004
300.984
300.956
300.918
300.875
300.825
300.771
300.712
300.65
300.586
300.52
300.452
300.383
300.313
300.243
300.173
300.101
300.027
299.952
299.874
299.794
299.711
299.624
299.534
299.442
299.349
299.257
299.166
299.078
298.998
300.712
300.706
300.705
300.703
300.702
300.701
300.698
300.696
300.693
300.69
300.687
300.685
300.682
300.68
300.678
300.676
300.675
300.673
300.67
300.664
300.654
300.638
300.613
300.58
300.542
300.498
300.45
300.397
300.342
300.285
300.226
300.166
300.105
300.044
299.982
299.92
299.857
299.793
299.727
299.659
299.589
299.515
299.439
299.359
299.277
299.195
299.113
299.032
298.953
298.883
300.365
300.359
300.358
300.357
300.356
300.355
300.353
300.351
300.349
300.347
300.345
300.343
300.342
300.34
300.34
300.339
300.339
300.339
300.337
300.334
300.326
300.313
300.291
300.263
300.23
300.191
300.149
300.102
300.054
300.003
299.952
299.899
299.845
299.792
299.738
299.684
299.629
299.573
299.516
299.457
299.395
299.331
299.264
299.194
299.123
299.05
298.977
298.906
298.837
298.774
300.044
300.038
300.038
300.037
300.036
300.035
300.034
300.033
300.031
300.03
300.029
300.028
300.027
300.026
300.026
300.027
300.028
300.029
300.029
300.027
300.021
300.01
299.993
299.968
299.94
299.906
299.869
299.828
299.786
299.741
299.696
299.65
299.604
299.557
299.511
299.464
299.417
299.368
299.319
299.268
299.215
299.16
299.101
299.041
298.978
298.914
298.851
298.788
298.728
298.673
299.75
299.745
299.745
299.744
299.743
299.743
299.742
299.741
299.74
299.739
299.738
299.738
299.738
299.738
299.739
299.74
299.742
299.744
299.745
299.744
299.74
299.731
299.717
299.696
299.672
299.643
299.61
299.575
299.538
299.5
299.461
299.421
299.381
299.341
299.301
299.261
299.221
299.179
299.137
299.094
299.049
299.001
298.951
298.898
298.844
298.789
298.734
298.679
298.627
298.58
299.483
299.479
299.478
299.478
299.477
299.477
299.477
299.476
299.475
299.475
299.475
299.475
299.475
299.476
299.477
299.479
299.481
299.484
299.485
299.486
299.483
299.477
299.465
299.447
299.426
299.402
299.374
299.343
299.312
299.279
299.245
299.211
299.177
299.143
299.109
299.075
299.041
299.006
298.971
298.934
298.896
298.855
298.813
298.768
298.721
298.674
298.626
298.58
298.534
298.494
299.243
299.239
299.239
299.239
299.239
299.238
299.238
299.238
299.238
299.238
299.238
299.238
299.239
299.24
299.241
299.244
299.246
299.249
299.251
299.252
299.251
299.246
299.236
299.222
299.204
299.183
299.159
299.134
299.107
299.079
299.05
299.021
298.993
298.964
298.936
298.907
298.879
298.85
298.82
298.789
298.757
298.723
298.687
298.649
298.609
298.569
298.529
298.489
298.451
298.417
299.03
299.027
299.027
299.026
299.026
299.026
299.026
299.026
299.026
299.026
299.027
299.027
299.028
299.029
299.031
299.034
299.036
299.039
299.042
299.043
299.043
299.039
299.031
299.02
299.005
298.987
298.967
298.946
298.923
298.9
298.876
298.852
298.827
298.804
298.78
298.757
298.733
298.709
298.684
298.659
298.632
298.604
298.574
298.542
298.509
298.475
298.441
298.408
298.376
298.347
298.843
298.84
298.84
298.84
298.84
298.84
298.84
298.84
298.84
298.84
298.841
298.842
298.843
298.844
298.846
298.848
298.851
298.854
298.857
298.858
298.859
298.856
298.85
298.84
298.828
298.814
298.797
298.779
298.76
298.741
298.721
298.701
298.681
298.662
298.642
298.623
298.604
298.584
298.564
298.543
298.522
298.498
298.474
298.447
298.42
298.392
298.364
298.336
298.309
298.285
298.68
298.678
298.678
298.678
298.678
298.678
298.678
298.678
298.679
298.679
298.68
298.68
298.682
298.683
298.685
298.687
298.69
298.693
298.695
298.697
298.698
298.696
298.691
298.684
298.674
298.662
298.648
298.634
298.618
298.602
298.586
298.57
298.553
298.537
298.522
298.506
298.491
298.475
298.459
298.442
298.425
298.406
298.385
298.364
298.342
298.319
298.296
298.273
298.251
298.231
298.541
298.539
298.54
298.54
298.54
298.54
298.54
298.54
298.54
298.541
298.542
298.542
298.543
298.545
298.547
298.549
298.551
298.554
298.556
298.558
298.559
298.558
298.554
298.548
298.54
298.531
298.52
298.508
298.495
298.482
298.469
298.456
298.443
298.43
298.418
298.406
298.393
298.381
298.368
298.355
298.341
298.325
298.309
298.292
298.274
298.255
298.237
298.218
298.201
298.185
298.424
298.423
298.423
298.423
298.423
298.423
298.423
298.423
298.424
298.424
298.425
298.426
298.427
298.428
298.43
298.431
298.434
298.436
298.438
298.44
298.441
298.44
298.437
298.433
298.427
298.419
298.41
298.401
298.391
298.381
298.37
298.36
298.35
298.339
298.33
298.32
298.31
298.3
298.29
298.28
298.269
298.257
298.244
298.231
298.216
298.201
298.187
298.172
298.158
298.145
298.327
298.326
298.326
298.326
298.326
298.326
298.326
298.327
298.327
298.327
298.328
298.329
298.33
298.331
298.332
298.334
298.336
298.338
298.34
298.341
298.342
298.342
298.34
298.336
298.332
298.326
298.319
298.311
298.303
298.295
298.287
298.279
298.271
298.263
298.256
298.248
298.241
298.233
298.226
298.218
298.209
298.2
298.19
298.179
298.168
298.156
298.145
298.133
298.122
298.112
298.248
298.247
298.247
298.247
298.247
298.247
298.247
298.247
298.248
298.248
298.249
298.249
298.25
298.251
298.252
298.254
298.255
298.257
298.259
298.26
298.261
298.261
298.259
298.257
298.253
298.249
298.243
298.238
298.232
298.225
298.219
298.213
298.207
298.201
298.195
298.189
298.184
298.178
298.172
298.166
298.16
298.152
298.145
298.137
298.128
298.119
298.11
298.101
298.093
298.085
298.184
298.183
298.183
298.184
298.184
298.184
298.184
298.184
298.184
298.185
298.185
298.186
298.186
298.187
298.188
298.189
298.191
298.192
298.193
298.195
298.195
298.195
298.194
298.192
298.19
298.186
298.182
298.178
298.173
298.169
298.164
298.159
298.155
298.15
298.146
298.142
298.137
298.133
298.129
298.124
298.119
298.114
298.109
298.102
298.096
298.089
298.082
298.076
298.069
298.064
298.134
298.134
298.134
298.134
298.134
298.134
298.134
298.134
298.134
298.135
298.135
298.136
298.136
298.137
298.137
298.138
298.139
298.141
298.142
298.143
298.143
298.143
298.143
298.141
298.139
298.137
298.134
298.131
298.127
298.124
298.12
298.117
298.113
298.11
298.107
298.104
298.101
298.098
298.095
298.091
298.088
298.084
298.08
298.075
298.07
298.065
298.06
298.055
298.051
298.046
298.096
298.095
298.095
298.095
298.095
298.096
298.096
298.096
298.096
298.096
298.097
298.097
298.097
298.098
298.098
298.099
298.1
298.101
298.102
298.102
298.103
298.103
298.103
298.102
298.1
298.098
298.096
298.094
298.091
298.089
298.086
298.084
298.081
298.079
298.077
298.075
298.072
298.07
298.068
298.066
298.063
298.06
298.057
298.054
298.05
298.047
298.043
298.04
298.036
298.033
298.067
298.066
298.067
298.067
298.067
298.067
298.067
298.067
298.067
298.067
298.067
298.068
298.068
298.068
298.069
298.069
298.07
298.071
298.071
298.072
298.072
298.072
298.072
298.071
298.07
298.069
298.068
298.066
298.064
298.063
298.061
298.059
298.057
298.056
298.054
298.052
298.051
298.049
298.048
298.046
298.044
298.042
298.04
298.038
298.035
298.033
298.03
298.028
298.025
298.023
298.046
298.045
298.045
298.045
298.045
298.045
298.045
298.046
298.046
298.046
298.046
298.046
298.046
298.047
298.047
298.047
298.048
298.048
298.049
298.049
298.05
298.05
298.05
298.049
298.048
298.048
298.046
298.045
298.044
298.043
298.042
298.04
298.039
298.038
298.037
298.036
298.035
298.034
298.033
298.032
298.03
298.029
298.028
298.026
298.024
298.022
298.021
298.019
298.017
298.016
298.03
298.03
298.03
298.03
298.03
298.03
298.03
298.03
298.03
298.03
298.031
298.031
298.031
298.031
298.031
298.032
298.032
298.032
298.033
298.033
298.033
298.033
298.033
298.033
298.032
298.032
298.031
298.03
298.03
298.029
298.028
298.027
298.026
298.025
298.025
298.024
298.023
298.023
298.022
298.021
298.02
298.019
298.018
298.017
298.016
298.015
298.014
298.013
298.011
298.01
298.02
298.019
298.019
298.019
298.02
298.02
298.02
298.02
298.02
298.02
298.02
298.02
298.02
298.02
298.02
298.021
298.021
298.021
298.021
298.021
298.022
298.022
298.022
298.021
298.021
298.021
298.02
298.02
298.019
298.019
298.018
298.018
298.017
298.017
298.016
298.016
298.015
298.015
298.014
298.014
298.013
298.013
298.012
298.011
298.01
298.01
298.009
298.008
298.007
298.007
298.012
298.012
298.012
298.012
298.012
298.012
298.012
298.012
298.012
298.012
298.012
298.013
298.013
298.013
298.013
298.013
298.013
298.013
298.013
298.014
298.014
298.014
298.014
298.014
298.013
298.013
298.013
298.013
298.012
298.012
298.011
298.011
298.011
298.01
298.01
298.01
298.01
298.009
298.009
298.009
298.008
298.008
298.008
298.007
298.007
298.006
298.006
298.005
298.005
298.004
298.008
298.007
298.007
298.007
298.007
298.008
298.008
298.008
298.008
298.008
298.008
298.008
298.008
298.008
298.008
298.008
298.008
298.008
298.008
298.008
298.008
298.008
298.008
298.008
298.008
298.008
298.008
298.008
298.008
298.007
298.007
298.007
298.007
298.006
298.006
298.006
298.006
298.006
298.006
298.005
298.005
298.005
298.005
298.004
298.004
298.004
298.003
298.003
298.003
298.003
298.004
298.004
298.004
298.004
298.004
298.004
298.004
298.004
298.004
298.005
298.005
298.005
298.005
298.005
298.005
298.005
298.005
298.005
298.005
298.005
298.005
298.005
298.005
298.005
298.005
298.005
298.005
298.005
298.004
298.004
298.004
298.004
298.004
298.004
298.004
298.004
298.004
298.003
298.003
298.003
298.003
298.003
298.003
298.003
298.002
298.002
298.002
298.002
298.002
298.002
298.003
298.003
298.003
298.003
298.003
298.003
298.003
298.003
298.003
298.003
298.003
298.003
298.003
298.003
298.003
298.003
298.003
298.003
298.003
298.003
298.003
298.003
298.003
298.003
298.003
298.003
298.003
298.003
298.003
298.003
298.002
298.002
298.002
298.002
298.002
298.002
298.002
298.002
298.002
298.002
298.002
298.002
298.002
298.001
298.001
298.001
298.001
298.001
298.001
298.001
298.001
298.001
298.001
298.001
298.001
298.001
298.001
298.001
298.001
298.001
298.001
298.001
298.001
298.001
298.001
298.002
298.002
298.002
298.002
298.002
298.002
298.002
298.002
298.002
298.002
298.002
298.002
298.001
298.001
298.001
298.001
298.001
298.001
298.001
298.001
298.001
298.001
298.001
298.001
298.001
298.001
298.001
298.001
298.001
298.001
298.001
298.001
298.001
298.001
298
298.001
298.001
298.001
298.001
298.001
298.001
298.001
298.001
298.001
298.001
298.001
298.001
298.001
298.001
298.001
298.001
298.001
298.001
298.001
298.001
298.001
298.001
298.001
298.001
298.001
298.001
298.001
298.001
298.001
298.001
298.001
298.001
298.001
298.001
298.001
298.001
298.001
298.001
298.001
298.001
298.001
298.001
298
298
298
298
298
298
298
298
298
298
298
298
298
298
298
298
298
298
298
298
298
298
298
298
298
298
298
298
298
298
298
298
298
298
298
298
298
298
298
298
298
298
298
298
298
298
298
298
298
298
298
298
298
298
298
298
298
298
298
298
298
298
298
298
298
298
298
298
298
298
298
298
298
298
298
298
298
298
298
298
298
298
298
298
298
298
298
298
298
298
298
298
298
298
298
298
298
298
298
298
298
298
298
298
298
298
298
298
298
298
298
298
298
298
298
298
298
298
298
298
298
298
298
298
298
298
298
298
298
298
298
298
298
298
298
298
298
298
298
298
298
298
298
298
298
298
298
298
298
298
298
298
298
298
298
298
298
298
298
298
298
298
298
298
298
298
298
298
298
298
298
298
298
298
298
298
298
298
298
298
298
298
298
298
298
298
298
298
298
298
298
298
298
298
298
298
298
298
298
298
298
298
298
298
298
298
298
298
298
298
298
298
298
298
298
298
298
298
298
298
298
298
298
298
298
298
298
298
298
298
298
298
298
298
298
298
298
298
298
298
298
298
298
298
298
298
298
298
298
298
298
298
298
298
298
298
298
298
298
298
298
298
298
298
298
298
298
298
298
298
298
298
298
298
298
298
298
298
298
298
298
298
298
298
298
298
298
298
298
298
298
298
298
298
298
298
298
298
298
298
298
298
298
298
298
298
298
298
298
298
298
298
298
298
298
298
298
298
298
298
298
298
298
298
298
298
298
298
298
298
298
298
298
298
298
298
298
298
298
298
298
298
298
298
298
298
298
298
298
298
298
298
298
298
298
298
298
298
298
298
298
298
298
298
298
298
298
298
298
298
298
298
298
298
298
298
298
298
298
298
298
298
298
298
298
298
298
298
298
298
298
298
298
298
298
298
298
298
298
298
298
298
298
298
298
298
298
298
298
298
298
298
298
298
298
298
298
298
298
298
298
298
298
298
298
298
298
298
298
298
298
298
298
298
298
298
298
298
298
298
298
298
298
298
298
298
298
298
298
298
298
298
298
298
298
298
298
298
298
298
298
298
298
298
298
298
298
298
298
298
298
298
298
298
298
298
298
298
298
298
298
298
298
298
298
298
298
298
298
298
298
298
298
298
298
298
298
298
298
298
298
298
298
298
298
298
298
298
298
298
298
298
298
298
298
298
298
298
298
298
298
298
298
298
298
298
298
298
298
298
298
298
298
298
298
298
298
298
298
298
298
298
298
298
298
298
298
298
298
298
298
298
298
298
298
298
298
298
298
298
298
298
298
298
298
298
298
298
298
298
298
298
298
298
298
298
298
298
298
298
298
298
298
298
298
298
298
298
298
298
298
298
298
298
298
298
298
298
298
298
298
298
298
298
298
298
298
298
298
298
298
298
298
298
298
298
298
298
298
298
298
298
298
298
298
298
298
298
298
298
298
298
298
298
298
298
298
298
298
298
298
298
298
298
298
298
298
298
298
298
298
298
298
298
298
298
298
298
298
298
298
298
298
298
298
298
298
298
298
298
298
298
298
298
298
298
298
298
298
298
298
298
298
298
298
298
298
298
298
298
298
298
298
298
298
298
298
298
298
298
298
298
298
298
298
298
298
298
298
298
298
298
298
298
298
298
298
298
298
298
298
298
298
298
298
298
298
298
298
298
298
298
298
298
298
298
298
298
298
298
298
298
298
298
298
298
298
298
298
298
298
298
298
298
298
298
298
298
298
298
298
298
298
298
298
298
298
298
298
298
298
298
298
298
298
298
298
298
298
298
298
298
298
298
298
298
298
298
298
298
298
298
298
298
298
298
298
298
298
298
298
298
298
298
298
298
298
298
298
298
298
298
298
298
298
298
298
298
298
298
298
298
298
298
298
298
298
298
298
298
298
298
298
298
298
298
298
298
298
298
298
298
298
298
298
298
298
298
298
298
298
298
298
298
298
298
298
298
298
298
298
298
298
298
298
298
298
298
298
298
298
298
298
298
298
298
298
298
298
298
298
298
298
298
298
298
298
298
298
298
298
298
298
298
298
298
298
298
298
298
298
298
298
298
298
298
298
298
298
298
298
298
298
298
298
298
298
298
298
298
298
298
298
298
298
298
298
298
298
298
298
298
298
298
298
298
298
298
298
298
298
298
298
298
298
298
298
298
298
298
298
298
298
298
298
298
298
298
298
298
298
298
298
298
298
298
298
298
298
298
298
298
298
298
298
298
298
298
298
298
298
298
298
298
298
298
298
298
298
298
298
298
298
298
298
298
298
298
298
298
298
298
298
298
298
298
298
298
298
298
298
298
298
298
298
298
298
298
298
298
298
298
298
298
298
298
298
298
298
298
298
298
298
298
298
298
298
298
298
298
298
298
298
298
298
298
298
298
298
298
298
298
298
298
298
298
298
298
298
298
298
298
298
298
298
298
298
298
298
298
298
298
298
298
298
298
298
298
298
298
298
298
298
298
298
298
298
298
298
298
298
298
298
298
298
298
298
298
298
298
298
298
298
298
298
298
298
298
298
298
298
298
298
298
298
298
298
298
298
298
298
298
298
298
298
298
298
298
298
298
298
298
298
298
298
298
298
298
298
298
298
298
298
298
298
298
298
298
298
298
298
298
298
298
298
298
298
298
298
298
298
298
298
298
298
298
298
298
298
298
298
298
298
298
298
298
298
298
298
298
298
298
298
298
298
298
298
298
298
298
298
298
298
298
298
298
298
298
298
298
298
298
298
298
298
298
298
298
298
298
298
298
298
298
298
298
298
298
298
298
298
298
298
298
298
298
298
298
298
298
298
298
298
298
298
298
298
298
298
298
298
298
298
298
298
298
298
298
298
298
298
298
298
298
298
298
298
298
298
298
298
298
298
298
298
298
298
298
298
298
298
298
298
298
298
298
298
298
298
298
298
298
298
298
298
298
298
298
298
298
298
298
298
298
298
298
298
298
298
298
298
298
298
298
298
298
298
298
298
298
298
298
298
298
298
298
298
298
298
298
298
298
298
298
298
298
298
298
298
298
298
298
298
298
298
298
298
298
298
298
298
298
298
298
298
298
298
298
298
298
298
298
298
298
298
298
298
298
298
298
298
298
298
298
298
298
298
298
298
298
298
298
298
298
298
298
298
298
298
298
298
298
298
298
298
298
298
298
298
298
298
298
298
298
298
298
298
298
298
298
298
298
298
298
298
298
298
298
298
298
298
298
298
298
298
298
298
298
298
298
298
298
298
298
298
298
298
298
298
298
298
298
298
298
298
298
298
298
298
298
298
298
298
298
298
298
298
298
298
298
298
298
298
298
298
298
298
298
298
298
298
298
298
298
298
298
298
298
298
298
298
298
298
298
298
298
298
298
298
298
298
298
298
298
298
298
298
298
298
298
298
298
298
298
298
298
298
298
298
298
298
298
298
298
298
298
298
298
298
298
298
298
298
298
298
298
298
298
298
298
298
298
298
298
298
298
298
298
298
298
298
298
298
298
298
298
298
298
298
298
298
298
298
298
298
298
298
298
298
298
298
298
298
298
298
298
298
298
298
298
298
298
298
298
298
298
298
298
298
298
298
298
298
298
298
298
298
298
298
298
298
298
298
298
298
298
298
298
298
298
298
298
298
298
298
298
298
298
298
298
298
298
298
298
298
298
298
298
298
298
298
298
298
298
298
298
298
298
298
298
298
298
298
298
298
298
298
298
298
298
298
298
298
298
298
298
298
298
298
298
298
298
298
298
298
298
298
298
298
298
298
298
298
298
298
298
298
298
298
298
298
298
298
298
298
298
298
298
298
298
298
298
298
298
298
298
298
298
298
298
298
298
298
298
298
298
298
298
298
298
298
298
298
298
298
298
298
298
298
298
298
298
298
298
298
298
298
298
298
298
298
298
298
298
298
298
298
298
298
298
298
298
298
298
298
298
298
298
298
298
298
298
298
298
298
298
298
298
298
298
298
298
298
298
298
298
298
298
298
298
298
298
298
298
298
298
298
298
298
298
298
298
298
298
298
298
298
298
298
298
298
298
298
298
298
298
298
298
298
298
298
298
298
298
298
298
298
298
298
298
298
298
298
298
298
298
298
298
298
298
298
298
298
298
298
298
298
298
298
298
298
298
298
298
298
298
298
298
298
298
298
298
298
298
298
298
298
298
298
298
298
298
298
298
298
298
298
298
298
298
298
298
298
298
298
298
298
298
298
298
298
298
298
298
298
298
298
298
298
298
298
298
298
298
298
298
298
298
298
298
298
298
298
298
298
298
298
298
298
298
298
298
298
298
298
298
298
298
298
298
298
298
298
298
298
298
298
298
298
298
298
298
298
298
298
298
298
298
298
298
298
298
298
298
298
298
298
298
298
298
298
298
298
298
298
298
298
298
298
298
298
298
298
298
298
298
298
298
298
298
298
298
298
298
298
298
298
298
298
298
298
298
298
298
298
298
298
298
298
298
298
298
298
298
298
298
298
298
298
298
298
298
298
298
298
298
298
298
298
298
298
298
298
298
298
298
298
298
298
298
298
298
298
298
298
298
298
298
298
298
298
298
298
298
298
298
298
298
298
298
298
298
298
298
298
298
298
298
298
298
298
298
298
298
298
298
298
298
298
298
298
298
298
298
298
298
298
298
298
298
298
298
298
298
298
298
298
298
298
298
298
298
298
298
298
298
298
298
298
298
298
298
298
298
298
298
298
298
298
298
298
298
298
298
298
298
298
298
298
298
298
298
298
298
298
298
298
298
298
298
298
298
298
298
298
298
298
298
298
298
298
298
298
298
298
298
298
298
298
298
298
298
298
298
298
298
298
298
298
298
298
298
298
298
298
298
298
298
298
298
298
298
298
298
298
298
298
298
298
298
298
298
298
298
298
298
298
298
298
298
298
298
298
298
298
298
298
298
298
298
298
298
298
298
298
298
298
298
298
298
298
298
298
298
298
298
298
298
298
298
298
298
298
298
298
298
298
298
298
298
298
298
298
298
298
298
298
298
298
298
298
298
298
298
298
298
298
298
298
298
298
298
298
298
298
298
298
298
298
298
298
298
298
298
298
298
298
298
298
298
298
298
298
298
298
298
298
298
298
298
298
298
298
298
298
298
298
298
298
298
298
298
298
298
298
298
298
298
298
298
298
298
298
298
298
298
298
298
298
298
298
298
298
298
298
298
298
298
298
298
298
298
298
298
298
298
298
298
298
298
298
298
298
298
298
298
298
298
298
298
298
298
298
298
298
298
298
298
298
298
298
298
298
298
298
298
298
298
298
298
298
298
298
298
298
298
298
298
298
298
298
298
298
298
298
298
298
298
298
298
298
298
298
298
298
298
298
298
298
298
298
298
298
298
298
298
298
298
298
298
298
298
298
298
298
298
298
298
298
298
298
298
298
298
298
298
298
298
298
298
298
298
298
298
298
298
298
298
298
298
298
298
298
298
298
298
298
298
298
298
298
298
298
298
298
298
298
298
298
298
298
298
298
298
298
298
298
298
298
298
298
298
298
298
298
298
298
298
298
298
298
298
298
298
298
298
298
298
298
298
298
298
298
298
298
298
298
298
298
298
298
298
298
298
298
298
298
298
298
298
298
298
298
298
298
298
298
298
298
298
298
298
298
298
298
298
298
298
298
298
298
298
298
298
298
298
298
298
298
298
298
298
298
298
298
298
298
298
298
298
298
298
298
298
298
298
298
298
298
298
298
298
298
298
298
298
298
298
298
298
298
298
298
298
298
298
298
298
298
298
298
298
298
298
298
298
298
298
298
298
298
298
298
298
298
298
298
298
298
298
298
298
298
298
298
298
298
298
298
298
298
298
298
298
298
298
298
298
298
298
298
298
298
298
298
298
298
298
298
298
298
298
298
298
298
298
298
298
298
298
298
298
298
298
298
298
298
298
298
298
298
298
298
298
298
298
298
298
298
298
298
298
298
298
298
298
298
298
298
298
298
298
298
298
298
298
298
298
298
298
298
298
298
298
298
298
298
298
298
298
298
298
298
298
298
298
298
298
298
298
298
298
298
298
298
298
298
298
298
298
298
298
298
298
298
298
298
298
298
298
298
298
298
298
298
298
298
298
298
298
298
298
298
298
298
298
298
298
298
298
298
298
298
298
298
298
298
298
298
298
298
298
298
298
298
298
298
298
298
298
298
298
298
298
298
298
298
298
298
298
298
298
298
298
298
298
298
298
298
298
298
298
298
298
298
298
298
298
298
298
298
298
298
298
298
298
298
298
298
298
298
298
298
298
298
298
298
298
298
298
298
298
298
298
298
298
298
298
298
298
298
298
298
298
298
298
298
298
298
298
298
298
298
298
298
298
298
298
298
298
298
298
298
298
298
298
298
298
298
298
298
298
298
298
298
298
298
298
298
298
298
298
298
298
298
298
298
298
298
298
298
298
298
298
298
298
298
298
298
298
298
298
298
298
298
298
298
298
298
298
298
298
298
298
298
298
298
298
298
298
298
298
298
298
298
298
298
298
298
298
298
298
298
298
298
298
298
298
298
298
298
298
298
298
298
298
298
298
298
298
298
298
298
298
298
298
298
298
298
298
298
298
298
298
298
298
298
298
298
298
298
298
298
298
298
298
298
298
298
298
298
298
298
298
298
298
298
298
298
298
298
298
298
298
298
298
298
298
298
298
298
298
298
298
298
298
298
298
298
298
298
298
298
298
298
298
298
298
298
298
298
298
298
298
298
298
298
298
298
298
298
298
298
298
298
298
298
298
298
298
298
298
298
298
298
298
298
298
298
298
298
298
298
298
298
298
298
298
298
298
298
298
298
298
298
298
298
298
298
298
298
298
298
298
298
298
298
298
298
298
298
298
298
298
298
298
298
298
298
298
298
298
298
298
298
298
298
298
298
298
298
298
298
298
298
298
298
298
298
298
298
298
298
298
298
298
298
298
298
298
298
298
298
298
298
298
298
298
298
298
298
298
298
298
298
298
298
298
298
298
298
298
298
298
298
298
298
298
298
298
298
298
298
298
298
298
298
298
298
298
298
298
298
298
298
298
298
298
298
298
298
298
298
298
298
298
298
298
298
298
298
298
298
298
298
298
298
298
298
298
298
298
298
298
298
298
298
298
298
298
298
298
298
298
298
298
298
298
298
298
298
298
298
298
298
298
298
298
298
298
298
298
298
298
298
298
298
298
298
298
298
298
298
298
298
298
298
298
298
298
298
298
298
298
298
298
298
298
298
298
298
298
298
298
298
298
298
298
298
298
298
298
298
298
298
298
298
298
298
298
298
298
298
298
298
298
298
298
298
298
298
298
298
298
298
298
298
298
298
298
298
298
298
298
298
298
298
298
298
298
298
298
298
298
298
298
298
298
298
298
298
298
298
298
298
298
298
298
298
298
298
298
298
298
298
298
298
298
298
298
298
298
298
298
298
298
298
298
298
298
298
298
298
298
298
298
298
298
298
298
298
298
298
298
298
298
298
298
298
298
298
298
298
298
298
298
298
298
298
298
298
298
298
298
298
298
298
298
297.999
298
298
298
298
298
298
298
298
298
298
298
298
298
298
298
298
298
298
298
298
298
298
298
298
298
298
298
298
298
298
298
298
298
298
298
298
298
298
298
298
298
298
298
298
298
298
298
298
298
)
;

boundaryField
{
    axis
    {
        type            empty;
    }
    back
    {
        type            zeroGradient;
    }
    wedge-right
    {
        type            wedge;
    }
    wedge-left
    {
        type            wedge;
    }
    outer
    {
        type            fixedGradient;
        gradient        nonuniform List<scalar> 
50
(
1372.25
1371.89
1370.53
1368.63
1366.27
1364.92
1361.87
1358.31
1354.22
1349.59
1344.37
1338.56
1332.13
1325.06
1317.32
1308.88
1299.59
1289.23
1277.72
1265.1
1251.34
1236.22
1219.06
1200.25
1181.39
1161.77
1141.07
1119.2
1096.08
1071.64
1045.81
1018.6
990.005
960.089
928.91
896.545
863.088
828.651
793.378
757.434
721.006
684.293
647.502
610.844
574.524
538.746
503.702
469.564
436.41
403.612
)
;
    }
    inner
    {
        type            fixedValue;
        value           uniform 298;
    }
}


// ************************************************************************* //
