/*--------------------------------*- C++ -*----------------------------------*\
  =========                 |
  \\      /  F ield         | OpenFOAM: The Open Source CFD Toolbox
   \\    /   O peration     | Website:  https://openfoam.org
    \\  /    A nd           | Version:  7
     \\/     M anipulation  |
\*---------------------------------------------------------------------------*/
FoamFile
{
    version     2.0;
    format      ascii;
    class       volScalarField;
    location    "0.07/porousMat";
    object      Ta;
}
// * * * * * * * * * * * * * * * * * * * * * * * * * * * * * * * * * * * * * //

dimensions      [0 0 0 1 0 0 0];

internalField   nonuniform List<scalar> 
5000
(
304.184
304.173
304.169
304.163
304.156
304.151
304.142
304.131
304.118
304.104
304.089
304.073
304.055
304.036
304.016
303.995
303.972
303.947
303.917
303.882
303.839
303.786
303.719
303.639
303.553
303.459
303.357
303.248
303.133
303.013
302.887
302.758
302.624
302.487
302.346
302.203
302.056
301.905
301.75
301.592
301.43
301.264
301.094
300.922
300.747
300.573
300.401
300.232
300.068
299.917
303.679
303.669
303.665
303.66
303.653
303.649
303.641
303.631
303.62
303.608
303.595
303.581
303.565
303.549
303.532
303.514
303.494
303.472
303.447
303.416
303.378
303.331
303.27
303.197
303.118
303.031
302.937
302.836
302.73
302.619
302.503
302.383
302.26
302.134
302.005
301.874
301.739
301.6
301.459
301.314
301.165
301.013
300.856
300.697
300.536
300.375
300.215
300.059
299.908
299.769
303.191
303.181
303.178
303.173
303.167
303.164
303.157
303.148
303.139
303.128
303.116
303.104
303.091
303.077
303.063
303.048
303.031
303.013
302.991
302.965
302.931
302.889
302.834
302.768
302.696
302.616
302.529
302.437
302.339
302.236
302.13
302.02
301.907
301.792
301.674
301.554
301.431
301.304
301.176
301.043
300.908
300.768
300.625
300.478
300.33
300.182
300.035
299.892
299.752
299.624
302.72
302.711
302.708
302.704
302.699
302.696
302.69
302.682
302.674
302.665
302.655
302.645
302.634
302.622
302.61
302.598
302.584
302.569
302.551
302.528
302.5
302.462
302.413
302.354
302.288
302.215
302.135
302.05
301.96
301.867
301.769
301.669
301.566
301.461
301.353
301.244
301.133
301.018
300.901
300.781
300.658
300.531
300.4
300.267
300.131
299.995
299.861
299.729
299.601
299.484
302.269
302.26
302.258
302.254
302.25
302.247
302.242
302.236
302.229
302.221
302.213
302.204
302.195
302.185
302.175
302.165
302.155
302.142
302.128
302.109
302.084
302.052
302.008
301.954
301.895
301.828
301.756
301.678
301.596
301.511
301.422
301.331
301.237
301.142
301.045
300.946
300.846
300.742
300.637
300.529
300.417
300.302
300.184
300.062
299.939
299.815
299.692
299.572
299.455
299.349
301.839
301.83
301.828
301.825
301.822
301.819
301.815
301.809
301.804
301.797
301.79
301.783
301.776
301.768
301.76
301.752
301.744
301.734
301.722
301.707
301.686
301.658
301.619
301.572
301.518
301.458
301.392
301.322
301.247
301.17
301.089
301.007
300.922
300.836
300.749
300.661
300.57
300.478
300.383
300.286
300.186
300.082
299.976
299.866
299.754
299.642
299.531
299.421
299.315
299.22
301.43
301.422
301.42
301.418
301.415
301.413
301.409
301.405
301.4
301.395
301.389
301.383
301.377
301.371
301.365
301.359
301.353
301.346
301.337
301.324
301.307
301.283
301.249
301.207
301.158
301.105
301.045
300.982
300.915
300.845
300.772
300.698
300.622
300.545
300.467
300.389
300.308
300.225
300.141
300.055
299.965
299.873
299.777
299.678
299.578
299.477
299.376
299.277
299.182
299.096
301.044
301.037
301.036
301.034
301.031
301.03
301.026
301.023
301.019
301.015
301.01
301.006
301.001
300.997
300.992
300.988
300.984
300.978
300.972
300.962
300.948
300.927
300.898
300.86
300.818
300.769
300.716
300.659
300.599
300.536
300.472
300.405
300.338
300.269
300.2
300.13
300.059
299.986
299.911
299.835
299.755
299.673
299.588
299.5
299.41
299.319
299.229
299.141
299.055
298.978
300.683
300.676
300.675
300.673
300.671
300.67
300.668
300.665
300.662
300.658
300.655
300.651
300.648
300.645
300.642
300.639
300.636
300.633
300.628
300.621
300.609
300.592
300.566
300.534
300.496
300.453
300.406
300.355
300.302
300.246
300.188
300.129
300.07
300.009
299.948
299.887
299.824
299.76
299.694
299.627
299.557
299.484
299.409
299.331
299.251
299.17
299.09
299.011
298.935
298.867
300.346
300.34
300.339
300.338
300.336
300.335
300.333
300.331
300.329
300.326
300.324
300.321
300.319
300.316
300.315
300.313
300.312
300.31
300.307
300.301
300.292
300.278
300.256
300.228
300.195
300.157
300.116
300.071
300.023
299.974
299.923
299.871
299.819
299.766
299.712
299.659
299.604
299.548
299.491
299.432
299.371
299.307
299.241
299.172
299.102
299.031
298.96
298.89
298.822
298.762
300.035
300.029
300.029
300.028
300.027
300.026
300.024
300.023
300.021
300.019
300.017
300.015
300.014
300.013
300.012
300.011
300.011
300.01
300.008
300.005
299.998
299.986
299.968
299.944
299.915
299.882
299.845
299.806
299.764
299.721
299.677
299.631
299.585
299.539
299.493
299.446
299.399
299.351
299.301
299.25
299.197
299.142
299.084
299.024
298.963
298.9
298.838
298.777
298.717
298.665
299.75
299.745
299.744
299.743
299.743
299.742
299.741
299.74
299.738
299.737
299.736
299.735
299.734
299.733
299.733
299.733
299.734
299.734
299.734
299.732
299.726
299.717
299.702
299.681
299.656
299.628
299.596
299.561
299.525
299.488
299.449
299.41
299.37
299.33
299.29
299.25
299.21
299.168
299.126
299.082
299.037
298.989
298.939
298.887
298.834
298.78
298.725
298.672
298.621
298.575
299.49
299.486
299.486
299.485
299.484
299.484
299.483
299.482
299.481
299.481
299.48
299.479
299.479
299.479
299.479
299.48
299.481
299.482
299.483
299.482
299.478
299.471
299.458
299.441
299.419
299.395
299.367
299.338
299.306
299.274
299.241
299.207
299.173
299.139
299.105
299.071
299.037
299.001
298.965
298.928
298.89
298.849
298.806
298.762
298.716
298.669
298.622
298.576
298.532
298.493
299.257
299.253
299.253
299.252
299.252
299.251
299.251
299.25
299.25
299.249
299.249
299.249
299.249
299.249
299.25
299.252
299.253
299.255
299.256
299.256
299.253
299.247
299.237
299.222
299.205
299.184
299.16
299.135
299.108
299.081
299.052
299.023
298.995
298.966
298.937
298.909
298.879
298.85
298.82
298.788
298.756
298.721
298.685
298.647
298.608
298.568
298.528
298.489
298.451
298.418
299.048
299.045
299.045
299.045
299.044
299.044
299.044
299.043
299.043
299.043
299.043
299.043
299.044
299.044
299.045
299.047
299.049
299.051
299.052
299.053
299.051
299.047
299.038
299.026
299.011
298.994
298.974
298.953
298.93
298.907
298.883
298.859
298.834
298.81
298.786
298.762
298.738
298.714
298.688
298.662
298.635
298.606
298.576
298.544
298.511
298.477
298.444
298.41
298.378
298.35
298.865
298.862
298.862
298.861
298.861
298.861
298.861
298.861
298.861
298.861
298.861
298.861
298.862
298.863
298.864
298.866
298.868
298.87
298.872
298.873
298.872
298.868
298.862
298.852
298.84
298.825
298.809
298.791
298.772
298.752
298.732
298.712
298.692
298.672
298.652
298.633
298.613
298.592
298.572
298.55
298.528
298.504
298.479
298.452
298.425
298.397
298.368
298.341
298.314
298.29
298.704
298.702
298.702
298.702
298.702
298.702
298.702
298.701
298.702
298.702
298.702
298.703
298.703
298.704
298.706
298.707
298.709
298.712
298.713
298.715
298.714
298.712
298.707
298.699
298.689
298.677
298.663
298.648
298.633
298.616
298.6
298.584
298.567
298.551
298.534
298.518
298.502
298.486
298.469
298.452
298.433
298.414
298.393
298.371
298.349
298.325
298.302
298.279
298.257
298.238
298.566
298.564
298.564
298.564
298.564
298.564
298.564
298.564
298.564
298.565
298.565
298.566
298.566
298.567
298.569
298.57
298.572
298.574
298.576
298.578
298.578
298.576
298.572
298.566
298.558
298.548
298.537
298.525
298.512
298.499
298.485
298.472
298.459
298.445
298.432
298.419
298.406
298.393
298.38
298.366
298.351
298.335
298.319
298.301
298.282
298.263
298.244
298.226
298.208
298.192
298.449
298.447
298.447
298.447
298.447
298.447
298.447
298.447
298.448
298.448
298.448
298.449
298.45
298.451
298.452
298.454
298.455
298.457
298.459
298.46
298.461
298.46
298.457
298.452
298.445
298.437
298.428
298.419
298.408
298.398
298.387
298.376
298.366
298.355
298.345
298.335
298.324
298.314
298.303
298.292
298.28
298.268
298.255
298.24
298.225
298.21
298.195
298.18
298.165
298.153
298.351
298.349
298.349
298.349
298.349
298.349
298.349
298.35
298.35
298.35
298.351
298.351
298.352
298.353
298.354
298.355
298.357
298.359
298.36
298.362
298.362
298.361
298.359
298.355
298.35
298.344
298.337
298.329
298.321
298.313
298.304
298.296
298.287
298.279
298.271
298.263
298.255
298.247
298.239
298.23
298.221
298.211
298.2
298.189
298.177
298.165
298.153
298.141
298.13
298.12
298.269
298.268
298.268
298.268
298.268
298.269
298.269
298.269
298.269
298.269
298.27
298.27
298.271
298.272
298.273
298.274
298.275
298.277
298.278
298.279
298.28
298.28
298.278
298.275
298.271
298.266
298.261
298.255
298.248
298.242
298.235
298.229
298.222
298.216
298.21
298.203
298.197
298.191
298.185
298.178
298.171
298.163
298.155
298.146
298.137
298.128
298.118
298.109
298.1
298.092
298.204
298.203
298.203
298.203
298.203
298.203
298.203
298.203
298.203
298.204
298.204
298.205
298.205
298.206
298.207
298.208
298.209
298.21
298.211
298.212
298.213
298.213
298.212
298.209
298.206
298.203
298.199
298.194
298.189
298.184
298.179
298.174
298.169
298.164
298.159
298.155
298.15
298.145
298.141
298.136
298.13
298.124
298.118
298.111
298.104
298.097
298.09
298.083
298.076
298.07
298.151
298.15
298.15
298.151
298.151
298.151
298.151
298.151
298.151
298.151
298.152
298.152
298.153
298.153
298.154
298.155
298.156
298.157
298.158
298.159
298.159
298.159
298.158
298.157
298.154
298.152
298.148
298.145
298.141
298.138
298.134
298.13
298.126
298.123
298.119
298.116
298.112
298.109
298.105
298.101
298.097
298.093
298.088
298.083
298.078
298.073
298.067
298.062
298.057
298.052
298.11
298.109
298.11
298.11
298.11
298.11
298.11
298.11
298.11
298.11
298.111
298.111
298.111
298.112
298.112
298.113
298.114
298.115
298.115
298.116
298.117
298.117
298.116
298.115
298.113
298.111
298.109
298.106
298.104
298.101
298.098
298.095
298.092
298.09
298.087
298.085
298.082
298.08
298.077
298.074
298.071
298.068
298.065
298.061
298.057
298.053
298.049
298.045
298.041
298.038
298.078
298.078
298.078
298.078
298.078
298.078
298.078
298.078
298.079
298.079
298.079
298.079
298.08
298.08
298.08
298.081
298.082
298.082
298.083
298.083
298.084
298.084
298.083
298.083
298.081
298.08
298.078
298.076
298.074
298.072
298.07
298.068
298.066
298.064
298.063
298.061
298.059
298.057
298.055
298.053
298.051
298.049
298.047
298.044
298.041
298.038
298.035
298.032
298.03
298.027
298.055
298.055
298.055
298.055
298.055
298.055
298.055
298.055
298.055
298.055
298.055
298.055
298.056
298.056
298.056
298.057
298.057
298.058
298.058
298.059
298.059
298.059
298.059
298.058
298.057
298.056
298.055
298.054
298.052
298.051
298.049
298.048
298.047
298.045
298.044
298.043
298.041
298.04
298.039
298.038
298.036
298.034
298.033
298.031
298.029
298.027
298.025
298.023
298.021
298.019
298.037
298.037
298.037
298.037
298.037
298.037
298.037
298.037
298.037
298.038
298.038
298.038
298.038
298.038
298.039
298.039
298.039
298.04
298.04
298.04
298.04
298.04
298.04
298.04
298.039
298.039
298.038
298.037
298.036
298.035
298.034
298.033
298.032
298.031
298.03
298.029
298.028
298.028
298.027
298.026
298.025
298.024
298.022
298.021
298.02
298.018
298.017
298.015
298.014
298.013
298.025
298.025
298.025
298.025
298.025
298.025
298.025
298.025
298.025
298.025
298.025
298.025
298.025
298.026
298.026
298.026
298.026
298.026
298.027
298.027
298.027
298.027
298.027
298.027
298.026
298.026
298.025
298.025
298.024
298.023
298.023
298.022
298.021
298.021
298.02
298.02
298.019
298.019
298.018
298.017
298.017
298.016
298.015
298.014
298.013
298.012
298.011
298.01
298.009
298.009
298.016
298.016
298.016
298.016
298.016
298.016
298.016
298.016
298.016
298.016
298.016
298.016
298.017
298.017
298.017
298.017
298.017
298.017
298.017
298.018
298.018
298.018
298.018
298.018
298.017
298.017
298.017
298.016
298.016
298.015
298.015
298.014
298.014
298.014
298.013
298.013
298.012
298.012
298.012
298.011
298.011
298.01
298.01
298.009
298.009
298.008
298.007
298.007
298.006
298.006
298.01
298.01
298.01
298.01
298.01
298.01
298.01
298.01
298.01
298.01
298.01
298.01
298.01
298.011
298.011
298.011
298.011
298.011
298.011
298.011
298.011
298.011
298.011
298.011
298.011
298.011
298.011
298.01
298.01
298.01
298.009
298.009
298.009
298.009
298.008
298.008
298.008
298.008
298.007
298.007
298.007
298.007
298.006
298.006
298.005
298.005
298.005
298.004
298.004
298.004
298.006
298.006
298.006
298.006
298.006
298.006
298.006
298.006
298.006
298.006
298.006
298.006
298.006
298.006
298.007
298.007
298.007
298.007
298.007
298.007
298.007
298.007
298.007
298.007
298.007
298.007
298.007
298.006
298.006
298.006
298.006
298.006
298.006
298.005
298.005
298.005
298.005
298.005
298.005
298.004
298.004
298.004
298.004
298.004
298.003
298.003
298.003
298.003
298.002
298.002
298.004
298.004
298.004
298.004
298.004
298.004
298.004
298.004
298.004
298.004
298.004
298.004
298.004
298.004
298.004
298.004
298.004
298.004
298.004
298.004
298.004
298.004
298.004
298.004
298.004
298.004
298.004
298.004
298.004
298.004
298.004
298.003
298.003
298.003
298.003
298.003
298.003
298.003
298.003
298.003
298.003
298.002
298.002
298.002
298.002
298.002
298.002
298.002
298.001
298.001
298.002
298.002
298.002
298.002
298.002
298.002
298.002
298.002
298.002
298.002
298.002
298.002
298.002
298.002
298.002
298.002
298.002
298.002
298.002
298.002
298.002
298.002
298.002
298.002
298.002
298.002
298.002
298.002
298.002
298.002
298.002
298.002
298.002
298.002
298.002
298.002
298.002
298.002
298.002
298.002
298.001
298.001
298.001
298.001
298.001
298.001
298.001
298.001
298.001
298.001
298.001
298.001
298.001
298.001
298.001
298.001
298.001
298.001
298.001
298.001
298.001
298.001
298.001
298.001
298.001
298.001
298.001
298.001
298.001
298.001
298.001
298.001
298.001
298.001
298.001
298.001
298.001
298.001
298.001
298.001
298.001
298.001
298.001
298.001
298.001
298.001
298.001
298.001
298.001
298.001
298.001
298.001
298.001
298.001
298.001
298.001
298.001
298.001
298
298
298.001
298.001
298.001
298.001
298.001
298.001
298.001
298.001
298.001
298.001
298.001
298.001
298.001
298.001
298.001
298.001
298.001
298.001
298.001
298.001
298.001
298.001
298.001
298.001
298.001
298.001
298.001
298.001
298.001
298.001
298.001
298.001
298.001
298.001
298.001
298.001
298.001
298.001
298
298
298
298
298
298
298
298
298
298
298
298
298
298
298
298
298
298
298
298
298
298
298
298
298
298
298
298
298
298
298
298
298
298
298
298
298
298
298
298
298
298
298
298
298
298
298
298
298
298
298
298
298
298
298
298
298
298
298
298
298
298
298
298
298
298
298
298
298
298
298
298
298
298
298
298
298
298
298
298
298
298
298
298
298
298
298
298
298
298
298
298
298
298
298
298
298
298
298
298
298
298
298
298
298
298
298
298
298
298
298
298
298
298
298
298
298
298
298
298
298
298
298
298
298
298
298
298
298
298
298
298
298
298
298
298
298
298
298
298
298
298
298
298
298
298
298
298
298
298
298
298
298
298
298
298
298
298
298
298
298
298
298
298
298
298
298
298
298
298
298
298
298
298
298
298
298
298
298
298
298
298
298
298
298
298
298
298
298
298
298
298
298
298
298
298
298
298
298
298
298
298
298
298
298
298
298
298
298
298
298
298
298
298
298
298
298
298
298
298
298
298
298
298
298
298
298
298
298
298
298
298
298
298
298
298
298
298
298
298
298
298
298
298
298
298
298
298
298
298
298
298
298
298
298
298
298
298
298
298
298
298
298
298
298
298
298
298
298
298
298
298
298
298
298
298
298
298
298
298
298
298
298
298
298
298
298
298
298
298
298
298
298
298
298
298
298
298
298
298
298
298
298
298
298
298
298
298
298
298
298
298
298
298
298
298
298
298
298
298
298
298
298
298
298
298
298
298
298
298
298
298
298
298
298
298
298
298
298
298
298
298
298
298
298
298
298
298
298
298
298
298
298
298
298
298
298
298
298
298
298
298
298
298
298
298
298
298
298
298
298
298
298
298
298
298
298
298
298
298
298
298
298
298
298
298
298
298
298
298
298
298
298
298
298
298
298
298
298
298
298
298
298
298
298
298
298
298
298
298
298
298
298
298
298
298
298
298
298
298
298
298
298
298
298
298
298
298
298
298
298
298
298
298
298
298
298
298
298
298
298
298
298
298
298
298
298
298
298
298
298
298
298
298
298
298
298
298
298
298
298
298
298
298
298
298
298
298
298
298
298
298
298
298
298
298
298
298
298
298
298
298
298
298
298
298
298
298
298
298
298
298
298
298
298
298
298
298
298
298
298
298
298
298
298
298
298
298
298
298
298
298
298
298
298
298
298
298
298
298
298
298
298
298
298
298
298
298
298
298
298
298
298
298
298
298
298
298
298
298
298
298
298
298
298
298
298
298
298
298
298
298
298
298
298
298
298
298
298
298
298
298
298
298
298
298
298
298
298
298
298
298
298
298
298
298
298
298
298
298
298
298
298
298
298
298
298
298
298
298
298
298
298
298
298
298
298
298
298
298
298
298
298
298
298
298
298
298
298
298
298
298
298
298
298
298
298
298
298
298
298
298
298
298
298
298
298
298
298
298
298
298
298
298
298
298
298
298
298
298
298
298
298
298
298
298
298
298
298
298
298
298
298
298
298
298
298
298
298
298
298
298
298
298
298
298
298
298
298
298
298
298
298
298
298
298
298
298
298
298
298
298
298
298
298
298
298
298
298
298
298
298
298
298
298
298
298
298
298
298
298
298
298
298
298
298
298
298
298
298
298
298
298
298
298
298
298
298
298
298
298
298
298
298
298
298
298
298
298
298
298
298
298
298
298
298
298
298
298
298
298
298
298
298
298
298
298
298
298
298
298
298
298
298
298
298
298
298
298
298
298
298
298
298
298
298
298
298
298
298
298
298
298
298
298
298
298
298
298
298
298
298
298
298
298
298
298
298
298
298
298
298
298
298
298
298
298
298
298
298
298
298
298
298
298
298
298
298
298
298
298
298
298
298
298
298
298
298
298
298
298
298
298
298
298
298
298
298
298
298
298
298
298
298
298
298
298
298
298
298
298
298
298
298
298
298
298
298
298
298
298
298
298
298
298
298
298
298
298
298
298
298
298
298
298
298
298
298
298
298
298
298
298
298
298
298
298
298
298
298
298
298
298
298
298
298
298
298
298
298
298
298
298
298
298
298
298
298
298
298
298
298
298
298
298
298
298
298
298
298
298
298
298
298
298
298
298
298
298
298
298
298
298
298
298
298
298
298
298
298
298
298
298
298
298
298
298
298
298
298
298
298
298
298
298
298
298
298
298
298
298
298
298
298
298
298
298
298
298
298
298
298
298
298
298
298
298
298
298
298
298
298
298
298
298
298
298
298
298
298
298
298
298
298
298
298
298
298
298
298
298
298
298
298
298
298
298
298
298
298
298
298
298
298
298
298
298
298
298
298
298
298
298
298
298
298
298
298
298
298
298
298
298
298
298
298
298
298
298
298
298
298
298
298
298
298
298
298
298
298
298
298
298
298
298
298
298
298
298
298
298
298
298
298
298
298
298
298
298
298
298
298
298
298
298
298
298
298
298
298
298
298
298
298
298
298
298
298
298
298
298
298
298
298
298
298
298
298
298
298
298
298
298
298
298
298
298
298
298
298
298
298
298
298
298
298
298
298
298
298
298
298
298
298
298
298
298
298
298
298
298
298
298
298
298
298
298
298
298
298
298
298
298
298
298
298
298
298
298
298
298
298
298
298
298
298
298
298
298
298
298
298
298
298
298
298
298
298
298
298
298
298
298
298
298
298
298
298
298
298
298
298
298
298
298
298
298
298
298
298
298
298
298
298
298
298
298
298
298
298
298
298
298
298
298
298
298
298
298
298
298
298
298
298
298
298
298
298
298
298
298
298
298
298
298
298
298
298
298
298
298
298
298
298
298
298
298
298
298
298
298
298
298
298
298
298
298
298
298
298
298
298
298
298
298
298
298
298
298
298
298
298
298
298
298
298
298
298
298
298
298
298
298
298
298
298
298
298
298
298
298
298
298
298
298
298
298
298
298
298
298
298
298
298
298
298
298
298
298
298
298
298
298
298
298
298
298
298
298
298
298
298
298
298
298
298
298
298
298
298
298
298
298
298
298
298
298
298
298
298
298
298
298
298
298
298
298
298
298
298
298
298
298
298
298
298
298
298
298
298
298
298
298
298
298
298
298
298
298
298
298
298
298
298
298
298
298
298
298
298
298
298
298
298
298
298
298
298
298
298
298
298
298
298
298
298
298
298
298
298
298
298
298
298
298
298
298
298
298
298
298
298
298
298
298
298
298
298
298
298
298
298
298
298
298
298
298
298
298
298
298
298
298
298
298
298
298
298
298
298
298
298
298
298
298
298
298
298
298
298
298
298
298
298
298
298
298
298
298
298
298
298
298
298
298
298
298
298
298
298
298
298
298
298
298
298
298
298
298
298
298
298
298
298
298
298
298
298
298
298
298
298
298
298
298
298
298
298
298
298
298
298
298
298
298
298
298
298
298
298
298
298
298
298
298
298
298
298
298
298
298
298
298
298
298
298
298
298
298
298
298
298
298
298
298
298
298
298
298
298
298
298
298
298
298
298
298
298
298
298
298
298
298
298
298
298
298
298
298
298
298
298
298
298
298
298
298
298
298
298
298
298
298
298
298
298
298
298
298
298
298
298
298
298
298
298
298
298
298
298
298
298
298
298
298
298
298
298
298
298
298
298
298
298
298
298
298
298
298
298
298
298
298
298
298
298
298
298
298
298
298
298
298
298
298
298
298
298
298
298
298
298
298
298
298
298
298
298
298
298
298
298
298
298
298
298
298
298
298
298
298
298
298
298
298
298
298
298
298
298
298
298
298
298
298
298
298
298
298
298
298
298
298
298
298
298
298
298
298
298
298
298
298
298
298
298
298
298
298
298
298
298
298
298
298
298
298
298
298
298
298
298
298
298
298
298
298
298
298
298
298
298
298
298
298
298
298
298
298
298
298
298
298
298
298
298
298
298
298
298
298
298
298
298
298
298
298
298
298
298
298
298
298
298
298
298
298
298
298
298
298
298
298
298
298
298
298
298
298
298
298
298
298
298
298
298
298
298
298
298
298
298
298
298
298
298
298
298
298
298
298
298
298
298
298
298
298
298
298
298
298
298
298
298
298
298
298
298
298
298
298
298
298
298
298
298
298
298
298
298
298
298
298
298
298
298
298
298
298
298
298
298
298
298
298
298
298
298
298
298
298
298
298
298
298
298
298
298
298
298
298
298
298
298
298
298
298
298
298
298
298
298
298
298
298
298
298
298
298
298
298
298
298
298
298
298
298
298
298
298
298
298
298
298
298
298
298
298
298
298
298
298
298
298
298
298
298
298
298
298
298
298
298
298
298
298
298
298
298
298
298
298
298
298
298
298
298
298
298
298
298
298
298
298
298
298
298
298
298
298
298
298
298
298
298
298
298
298
298
298
298
298
298
298
298
298
298
298
298
298
298
298
298
298
298
298
298
298
298
298
298
298
298
298
298
298
298
298
298
298
298
298
298
298
298
298
298
298
298
298
298
298
298
298
298
298
298
298
298
298
298
298
298
298
298
298
298
298
298
298
298
298
298
298
298
298
298
298
298
298
298
298
298
298
298
298
298
298
298
298
298
298
298
298
298
298
298
298
298
298
298
298
298
298
298
298
298
298
298
298
298
298
298
298
298
298
298
298
298
298
298
298
298
298
298
298
298
298
298
298
298
298
298
298
298
298
298
298
298
298
298
298
298
298
298
298
298
298
298
298
298
298
298
298
298
298
298
298
298
298
298
298
298
298
298
298
298
298
298
298
298
298
298
298
298
298
298
298
298
298
298
298
298
298
298
298
298
298
298
298
298
298
298
298
298
298
298
298
298
298
298
298
298
298
298
298
298
298
298
298
298
298
298
298
298
298
298
298
298
298
298
298
298
298
298
298
298
298
298
298
298
298
298
298
298
298
298
298
298
298
298
298
298
298
298
298
298
298
298
298
298
298
298
298
298
298
298
298
298
298
298
298
298
298
298
298
298
298
298
298
298
298
298
298
298
298
298
298
298
298
298
298
298
298
298
298
298
298
298
298
298
298
298
298
298
298
298
298
298
298
298
298
298
298
298
298
298
298
298
298
298
298
298
298
298
298
298
298
298
298
298
298
298
298
298
298
298
298
298
298
298
298
298
298
298
298
298
298
298
298
298
298
298
298
298
298
298
298
298
298
298
298
298
298
298
298
298
298
298
298
298
298
298
298
298
298
298
298
298
298
298
298
298
298
298
298
298
298
298
298
298
298
298
298
298
298
298
298
298
298
298
298
298
298
298
298
298
298
298
298
298
298
298
298
298
298
298
298
298
298
298
298
298
298
298
298
298
298
298
298
298
298
298
298
298
298
298
298
298
298
298
298
298
298
298
298
298
298
298
298
298
298
298
298
298
298
298
298
298
298
298
298
298
298
298
298
298
298
298
298
298
298
298
298
298
298
298
298
298
298
298
298
298
298
298
298
298
298
298
298
298
298
298
298
298
298
298
298
298
298
298
298
298
298
298
298
298
298
298
298
298
298
298
298
298
298
298
298
298
298
298
298
298
298
298
298
298
298
298
298
298
298
298
298
298
298
298
298
298
298
298
298
298
298
298
298
298
298
298
298
298
298
298
298
298
298
298
298
298
298
298
298
298
298
298
298
298
298
298
298
298
298
298
298
298
298
298
298
298
298
298
298
298
298
298
298
298
298
298
298
298
298
298
298
298
298
298
298
298
298
298
298
298
298
298
298
298
298
298
298
298
298
298
298
298
298
298
298
298
298
298
298
298
298
298
298
298
298
298
298
298
298
298
298
298
298
298
298
298
298
298
298
298
298
298
298
298
298
298
298
298
298
298
298
298
298
298
298
298
298
298
298
298
298
298
298
298
298
298
298
298
298
298
298
298
298
298
298
298
298
298
298
298
298
298
298
298
298
298
298
298
298
298
298
298
298
298
298
298
298
298
298
298
298
298
298
298
298
298
298
298
298
298
298
298
298
298
298
298
298
298
298
298
298
298
298
298
298
298
298
298
298
298
298
298
298
298
298
298
298
298
298
298
298
298
298
298
298
298
298
298
298
298
298
298
298
298
298
298
298
298
298
298
298
298
298
298
298
298
298
298
298
298
298
298
298
298
298
298
298
298
298
298
298
298
298
298
298
298
298
298
298
298
298
298
298
298
298
298
298
298
298
298
298
298
298
298
298
298
298
298
298
298
298
298
298
298
298
298
298
298
298
298
298
298
298
298
298
298
298
298
298
298
298
298
298
298
298
298
298
298
298
298
298
298
298
298
298
298
298
298
298
298
298
298
298
298
298
298
298
298
298
298
298
298
298
298
298
298
298
298
298
298
298
298
298
298
298
298
298
298
298
298
298
298
298
298
298
298
298
298
298
298
298
298
298
298
298
298
298
298
298
298
298
298
298
298
298
298
298
298
298
298
298
298
298
298
298
298
298
298
298
298
298
298
298
298
298
298
298
298
298
298
298
298
298
298
298
298
298
298
298
298
298
298
298
298
298
298
298
298
298
298
298
298
298
298
298
298
298
298
298
298
298
298
298
298
298
298
298
298
298
298
298
298
298
298
298
298
298
298
298
298
298
298
298
298
298
298
298
298
298
298
298
298
298
298
298
298
298
298
298
298
298
298
298
298
298
298
298
298
298
298
298
298
298
298
298
298
298
298
298
298
298
298
298
298
298
298
298
298
298
298
298
298
298
298
298
298
298
298
298
298
298
298
298
298
298
298
298
298
298
298
298
298
298
298
298
298
298
298
298
298
298
298
298
298
298
298
298
298
298
298
298
298
298
298
298
298
298
298
298
298
298
298
298
298
298
298
298
298
298
298
298
298
298
298
298
298
298
298
298
298
298
298
298
298
298
298
298
298
298
298
298
298
298
298
298
298
298
298
298
298
298
298
298
298
298
298
298
298
298
298
298
298
298
298
298
298
298
298
298
298
298
298
298
298
298
298
298
298
298
298
298
298
298
298
298
298
298
298
298
298
298
298
298
298
298
298
298
298
298
298
298
298
298
298
298
298
298
298
298
298
298
298
298
298
298
298
298
298
298
298
298
298
298
298
298
298
298
298
298
298
298
298
298
298
298
298
298
298
298
298
298
298
298
298
298
298
298
298
298
298
298
298
298
298
298
298
298
298
298
298
298
298
298
298
298
298
298
298
298
298
298
298
298
298
298
298
298
298
298
298
298
298
298
298
298
298
298
298
298
298
298
298
298
298
298
298
298
298
298
298
298
298
298
298
298
298
298
298
298
298
298
298
298
298
298
298
298
298
298
298
298
298
298
298
298
298
298
298
298
298
298
298
298
298
298
298
298
298
298
298
298
298
298
298
298
298
298
298
298
297.999
298
298
298
298
298
298
298
298
298
298
298
298
298
298
298
298
298
298
298
298
298
298
298
298
298
298
298
298
298
298
298
298
298
298
298
298
298
298
298
298
298
298
298
298
298
298
298
298
298
)
;

boundaryField
{
    axis
    {
        type            empty;
    }
    back
    {
        type            zeroGradient;
    }
    wedge-right
    {
        type            wedge;
    }
    wedge-left
    {
        type            wedge;
    }
    outer
    {
        type            fixedGradient;
        gradient        nonuniform List<scalar> 
50
(
1374.72
1374.35
1372.98
1371.07
1368.7
1367.35
1364.28
1360.7
1356.59
1351.93
1346.69
1340.85
1334.39
1327.28
1319.51
1311.02
1301.68
1291.27
1279.71
1267.03
1253.21
1238.03
1220.8
1201.92
1182.99
1163.31
1142.55
1120.61
1097.42
1072.91
1047.02
1019.74
991.078
961.094
929.848
897.417
863.895
829.396
794.063
758.062
721.581
684.818
647.981
611.279
574.919
539.105
504.028
469.859
436.678
403.853
)
;
    }
    inner
    {
        type            fixedValue;
        value           uniform 298;
    }
}


// ************************************************************************* //
